TITLE = "Solution" 
VARIABLES = "x", "y", "sol" 
ZONE STRANDID=1, SOLUTIONTIME= 0.6000000000000003, I= 101, J =101, DATAPACKING=POINT 
-1.0,-1.0,0.15643616928486248
-0.98,-1.0,0.09560312911999563
-0.96,-1.0,0.03326237049836525
-0.94,-1.0,-0.029602955576001424
-0.92,-1.0,-0.09200142535698601
-0.9,-1.0,-0.1529489777011034
-0.88,-1.0,-0.21148443329958375
-0.86,-1.0,-0.2666846530502532
-0.84,-1.0,-0.31767909651263004
-0.8200000000000001,-1.0,-0.36366355085070945
-0.8,-1.0,-0.40391281374979787
-0.78,-1.0,-0.4377921302902326
-0.76,-1.0,-0.4647672034116482
-0.74,-1.0,-0.48441262009679253
-0.72,-1.0,-0.49641856038893734
-0.7,-1.0,-0.5005956834376746
-0.6799999999999999,-1.0,-0.4968781135172335
-0.6599999999999999,-1.0,-0.48532447892602826
-0.64,-1.0,-0.466116987383369
-0.62,-1.0,-0.43955855250488246
-0.6,-1.0,-0.4060680166738426
-0.5800000000000001,-1.0,-0.3661735456465809
-0.56,-1.0,-0.3205042990629991
-0.54,-1.0,-0.2697805082232062
-0.52,-1.0,-0.21480211760966936
-0.5,-1.0,-0.15643616928486256
-0.48,-1.0,-0.09560312911999563
-0.45999999999999996,-1.0,-0.03326237049836518
-0.43999999999999995,-1.0,0.02960295557600145
-0.42000000000000004,-1.0,0.09200142535698606
-0.4,-1.0,0.15294897770110347
-0.38,-1.0,0.21148443329958388
-0.36,-1.0,0.26668465305025324
-0.33999999999999997,-1.0,0.31767909651263015
-0.31999999999999995,-1.0,0.3636635508507095
-0.29999999999999993,-1.0,0.4039128137497978
-0.28,-1.0,0.43779213029023256
-0.26,-1.0,0.4647672034116483
-0.24,-1.0,0.4844126200967924
-0.21999999999999997,-1.0,0.49641856038893745
-0.19999999999999996,-1.0,0.5005956834376745
-0.17999999999999994,-1.0,0.4968781135172335
-0.16000000000000003,-1.0,0.4853244789260283
-0.14,-1.0,0.4661169873833688
-0.12,-1.0,0.43955855250488235
-0.09999999999999998,-1.0,0.4060680166738426
-0.07999999999999996,-1.0,0.36617354564658083
-0.05999999999999994,-1.0,0.3205042990629991
-0.040000000000000036,-1.0,0.2697805082232062
-0.020000000000000018,-1.0,0.21480211760966933
0.0,-1.0,0.1564361692848625
0.020000000000000018,-1.0,0.09560312911999555
0.040000000000000036,-1.0,0.033262370498365154
0.06000000000000005,-1.0,-0.02960295557600146
0.08000000000000007,-1.0,-0.09200142535698608
0.10000000000000009,-1.0,-0.1529489777011035
0.1200000000000001,-1.0,-0.21148443329958386
0.14000000000000012,-1.0,-0.2666846530502531
0.15999999999999992,-1.0,-0.31767909651263015
0.17999999999999994,-1.0,-0.36366355085070945
0.19999999999999996,-1.0,-0.40391281374979776
0.21999999999999997,-1.0,-0.43779213029023256
0.24,-1.0,-0.46476720341164834
0.26,-1.0,-0.4844126200967924
0.28,-1.0,-0.4964185603889373
0.30000000000000004,-1.0,-0.5005956834376746
0.32000000000000006,-1.0,-0.4968781135172334
0.3400000000000001,-1.0,-0.48532447892602826
0.3600000000000001,-1.0,-0.4661169873833689
0.3800000000000001,-1.0,-0.43955855250488246
0.40000000000000013,-1.0,-0.4060680166738425
0.41999999999999993,-1.0,-0.3661735456465807
0.43999999999999995,-1.0,-0.32050429906299915
0.45999999999999996,-1.0,-0.2697805082232062
0.48,-1.0,-0.21480211760966922
0.5,-1.0,-0.15643616928486248
0.52,-1.0,-0.09560312911999552
0.54,-1.0,-0.033262370498365126
0.56,-1.0,0.029602955576001472
0.5800000000000001,-1.0,0.0920014253569861
0.6000000000000001,-1.0,0.15294897770110355
0.6200000000000001,-1.0,0.21148443329958388
0.6400000000000001,-1.0,0.2666846530502532
0.6600000000000001,-1.0,0.31767909651263015
0.6799999999999999,-1.0,0.3636635508507094
0.7,-1.0,0.403912813749798
0.72,-1.0,0.43779213029023245
0.74,-1.0,0.46476720341164834
0.76,-1.0,0.48441262009679253
0.78,-1.0,0.4964185603889374
0.8,-1.0,0.5005956834376747
0.8200000000000001,-1.0,0.4968781135172333
0.8400000000000001,-1.0,0.4853244789260282
0.8600000000000001,-1.0,0.4661169873833687
0.8800000000000001,-1.0,0.4395585525048823
0.9000000000000001,-1.0,0.4060680166738424
0.9199999999999999,-1.0,0.36617354564658094
0.94,-1.0,0.3205042990629991
0.96,-1.0,0.2697805082232062
0.98,-1.0,0.21480211760966927
1.0,-1.0,0.15643616928486248

-1.0,-0.98,0.09560312911999563
-0.98,-0.98,0.0430312689828382
-0.96,-0.98,-0.010219219971812729
-0.94,-0.98,-0.06330854572284204
-0.92,-0.98,-0.11539945788913007
-0.9,-0.98,-0.16567045166821182
-0.88,-0.98,-0.21332872345775525
-0.86,-0.98,-0.25762267384196735
-0.84,-0.98,-0.2978537607633662
-0.8200000000000001,-0.98,-0.33338751594831456
-0.8,-0.98,-0.3636635508507094
-0.78,-0.98,-0.3882043943141133
-0.76,-0.98,-0.40662302257711924
-0.74,-0.98,-0.41862896286926427
-0.72,-0.98,-0.4240328743401399
-0.7,-0.98,-0.4227495340777106
-0.6799999999999999,-0.98,-0.4147991811245453
-0.6599999999999999,-0.98,-0.40030719729602604
-0.64,-0.98,-0.37950212983421994
-0.62,-0.98,-0.3527120870813448
-0.6,-0.98,-0.320359564015209
-0.5800000000000001,-0.98,-0.28295477925102586
-0.56,-0.98,-0.2410876285890623
-0.54,-0.98,-0.19541838200548067
-0.52,-0.98,-0.1466672708003896
-0.5,-0.98,-0.09560312911999563
-0.48,-0.98,-0.04303126898283815
-0.45999999999999996,-0.98,0.010219219971812743
-0.43999999999999995,-0.98,0.06330854572284206
-0.42000000000000004,-0.98,0.11539945788913013
-0.4,-0.98,0.16567045166821193
-0.38,-0.98,0.21332872345775533
-0.36,-0.98,0.25762267384196746
-0.33999999999999997,-0.98,0.2978537607633663
-0.31999999999999995,-0.98,0.33338751594831445
-0.29999999999999993,-0.98,0.3636635508507093
-0.28,-0.98,0.3882043943141134
-0.26,-0.98,0.40662302257711924
-0.24,-0.98,0.4186289628692644
-0.21999999999999997,-0.98,0.4240328743401399
-0.19999999999999996,-0.98,0.42274953407771054
-0.17999999999999994,-0.98,0.4147991811245453
-0.16000000000000003,-0.98,0.40030719729602593
-0.14,-0.98,0.3795021298342198
-0.12,-0.98,0.3527120870813449
-0.09999999999999998,-0.98,0.32035956401520893
-0.07999999999999996,-0.98,0.2829547792510259
-0.05999999999999994,-0.98,0.2410876285890623
-0.040000000000000036,-0.98,0.19541838200548065
-0.020000000000000018,-0.98,0.14666727080038958
0.0,-0.98,0.09560312911999556
0.020000000000000018,-0.98,0.04303126898283813
0.040000000000000036,-0.98,-0.010219219971812753
0.06000000000000005,-0.98,-0.0633085457228421
0.08000000000000007,-0.98,-0.11539945788913014
0.10000000000000009,-0.98,-0.1656704516682119
0.1200000000000001,-0.98,-0.21332872345775525
0.14000000000000012,-0.98,-0.25762267384196746
0.15999999999999992,-0.98,-0.29785376076336617
0.17999999999999994,-0.98,-0.33338751594831445
0.19999999999999996,-0.98,-0.3636635508507094
0.21999999999999997,-0.98,-0.38820439431411347
0.24,-0.98,-0.4066230225771192
0.26,-0.98,-0.41862896286926415
0.28,-0.98,-0.42403287434014
0.30000000000000004,-0.98,-0.42274953407771054
0.32000000000000006,-0.98,-0.4147991811245452
0.3400000000000001,-0.98,-0.40030719729602593
0.3600000000000001,-0.98,-0.37950212983421994
0.3800000000000001,-0.98,-0.35271208708134477
0.40000000000000013,-0.98,-0.3203595640152088
0.41999999999999993,-0.98,-0.28295477925102597
0.43999999999999995,-0.98,-0.2410876285890623
0.45999999999999996,-0.98,-0.1954183820054806
0.48,-0.98,-0.14666727080038958
0.5,-0.98,-0.09560312911999555
0.52,-0.98,-0.0430312689828381
0.54,-0.98,0.010219219971812774
0.56,-0.98,0.06330854572284213
0.5800000000000001,-0.98,0.11539945788913018
0.6000000000000001,-0.98,0.16567045166821195
0.6200000000000001,-0.98,0.2133287234577553
0.6400000000000001,-0.98,0.25762267384196746
0.6600000000000001,-0.98,0.29785376076336617
0.6799999999999999,-0.98,0.3333875159483146
0.7,-0.98,0.3636635508507093
0.72,-0.98,0.3882043943141134
0.74,-0.98,0.40662302257711935
0.76,-0.98,0.4186289628692643
0.78,-0.98,0.42403287434014003
0.8,-0.98,0.42274953407771043
0.8200000000000001,-0.98,0.4147991811245452
0.8400000000000001,-0.98,0.4003071972960259
0.8600000000000001,-0.98,0.37950212983421977
0.8800000000000001,-0.98,0.3527120870813447
0.9000000000000001,-0.98,0.320359564015209
0.9199999999999999,-0.98,0.2829547792510259
0.94,-0.98,0.24108762858906227
0.96,-0.98,0.19541838200548062
0.98,-0.98,0.14666727080038958
1.0,-0.98,0.09560312911999563

-1.0,-0.96,0.03326237049836524
-0.98,-0.96,-0.010219219971812719
-0.96,-0.96,-0.05353964723836907
-0.94,-0.96,-0.09601572228494139
-0.92,-0.96,-0.13697757203406788
-0.9,-0.96,-0.17577920364578198
-0.88,-0.96,-0.21180869221059542
-0.86,-0.96,-0.24449783117086832
-0.84,-0.96,-0.27333109327765187
-0.8200000000000001,-0.96,-0.2978537607633661
-0.8,-0.96,-0.31767909651263
-0.78,-0.96,-0.332494443137596
-0.76,-0.96,-0.34206615377172944
-0.74,-0.96,-0.3462432768204668
-0.72,-0.96,-0.3449599365580376
-0.7,-0.96,-0.33823637202701057
-0.6799999999999999,-0.96,-0.32617861785650304
-0.6599999999999999,-0.96,-0.30897683203273685
-0.64,-0.96,-0.2869022969940017
-0.62,-0.96,-0.26030314134454635
-0.6,-0.96,-0.22959884965852806
-0.5800000000000001,-0.96,-0.19527364695769034
-0.56,-0.96,-0.15786886219350735
-0.54,-0.96,-0.11797439116624564
-0.52,-0.96,-0.07621939351580696
-0.5,-0.96,-0.033262370498365196
-0.48,-0.96,0.01021921997181274
-0.45999999999999996,-0.96,0.05353964723836907
-0.43999999999999995,-0.96,0.09601572228494143
-0.42000000000000004,-0.96,0.13697757203406796
-0.4,-0.96,0.17577920364578206
-0.38,-0.96,0.21180869221059553
-0.36,-0.96,0.24449783117086843
-0.33999999999999997,-0.96,0.27333109327765176
-0.31999999999999995,-0.96,0.2978537607633661
-0.29999999999999993,-0.96,0.3176790965126301
-0.28,-0.96,0.3324944431375961
-0.26,-0.96,0.34206615377172955
-0.24,-0.96,0.3462432768204668
-0.21999999999999997,-0.96,0.3449599365580375
-0.19999999999999996,-0.96,0.3382363720270106
-0.17999999999999994,-0.96,0.326178617856503
-0.16000000000000003,-0.96,0.3089768320327367
-0.14,-0.96,0.28690229699400177
-0.12,-0.96,0.26030314134454635
-0.09999999999999998,-0.96,0.22959884965852814
-0.07999999999999996,-0.96,0.1952736469576903
-0.05999999999999994,-0.96,0.15786886219350735
-0.040000000000000036,-0.96,0.11797439116624561
-0.020000000000000018,-0.96,0.0762193935158069
0.0,-0.96,0.03326237049836518
0.020000000000000018,-0.96,-0.010219219971812743
0.040000000000000036,-0.96,-0.053539647238369126
0.06000000000000005,-0.96,-0.09601572228494146
0.08000000000000007,-0.96,-0.13697757203406796
0.10000000000000009,-0.96,-0.175779203645782
0.1200000000000001,-0.96,-0.2118086922105955
0.14000000000000012,-0.96,-0.24449783117086832
0.15999999999999992,-0.96,-0.2733310932776518
0.17999999999999994,-0.96,-0.2978537607633661
0.19999999999999996,-0.96,-0.3176790965126301
0.21999999999999997,-0.96,-0.33249444313759596
0.24,-0.96,-0.3420661537717293
0.26,-0.96,-0.3462432768204669
0.28,-0.96,-0.3449599365580376
0.30000000000000004,-0.96,-0.33823637202701057
0.32000000000000006,-0.96,-0.326178617856503
0.3400000000000001,-0.96,-0.3089768320327368
0.3600000000000001,-0.96,-0.2869022969940017
0.3800000000000001,-0.96,-0.2603031413445463
0.40000000000000013,-0.96,-0.22959884965852814
0.41999999999999993,-0.96,-0.19527364695769034
0.43999999999999995,-0.96,-0.1578688621935073
0.45999999999999996,-0.96,-0.11797439116624561
0.48,-0.96,-0.0762193935158069
0.5,-0.96,-0.03326237049836517
0.52,-0.96,0.01021921997181277
0.54,-0.96,0.053539647238369126
0.56,-0.96,0.09601572228494148
0.5800000000000001,-0.96,0.136977572034068
0.6000000000000001,-0.96,0.17577920364578203
0.6200000000000001,-0.96,0.21180869221059553
0.6400000000000001,-0.96,0.24449783117086826
0.6600000000000001,-0.96,0.27333109327765187
0.6799999999999999,-0.96,0.29785376076336606
0.7,-0.96,0.31767909651263004
0.72,-0.96,0.33249444313759613
0.74,-0.96,0.34206615377172944
0.76,-0.96,0.34624327682046696
0.78,-0.96,0.3449599365580374
0.8,-0.96,0.3382363720270105
0.8200000000000001,-0.96,0.32617861785650293
0.8400000000000001,-0.96,0.3089768320327366
0.8600000000000001,-0.96,0.28690229699400166
0.8800000000000001,-0.96,0.2603031413445464
0.9000000000000001,-0.96,0.22959884965852811
0.9199999999999999,-0.96,0.1952736469576903
0.94,-0.96,0.15786886219350732
0.96,-0.96,0.11797439116624558
0.98,-0.96,0.07621939351580695
1.0,-0.96,0.03326237049836524

-1.0,-0.94,-0.029602955576001413
-0.98,-0.94,-0.063308545722842
-0.96,-0.94,-0.09601572228494139
-0.94,-0.94,-0.12720867354959495
-0.92,-0.94,-0.15639546804159332
-0.9,-0.94,-0.18311581257645151
-0.88,-0.94,-0.206948311358895
-0.86,-0.94,-0.22751711164627986
-0.84,-0.94,-0.24449783117086824
-0.8200000000000001,-0.94,-0.25762267384196724
-0.8,-0.94,-0.2666846530502528
-0.78,-0.94,-0.2715408559702461
-0.76,-0.94,-0.2721146973809436
-0.74,-0.94,-0.26839712746050287
-0.72,-0.94,-0.2604467745073375
-0.7,-0.94,-0.2483890203368299
-0.6799999999999999,-0.94,-0.23241402293520214
-0.6599999999999999,-0.94,-0.2127737175544786
-0.64,-0.94,-0.18977784354306307
-0.62,-0.94,-0.1637890595711849
-0.6,-0.94,-0.13521722428702765
-0.5800000000000001,-0.94,-0.10451293260100944
-0.56,-0.94,-0.07216040953487357
-0.54,-0.94,-0.038669873703833596
-0.52,-0.94,-0.004569490864221211
-0.5,-0.94,0.02960295557600142
-0.48,-0.94,0.06330854572284203
-0.45999999999999996,-0.94,0.09601572228494142
-0.43999999999999995,-0.94,0.12720867354959503
-0.42000000000000004,-0.94,0.1563954680415934
-0.4,-0.94,0.18311581257645163
-0.38,-0.94,0.20694831135889513
-0.36,-0.94,0.22751711164627977
-0.33999999999999997,-0.94,0.24449783117086824
-0.31999999999999995,-0.94,0.25762267384196735
-0.29999999999999993,-0.94,0.2666846530502528
-0.28,-0.94,0.2715408559702462
-0.26,-0.94,0.27211469738094374
-0.24,-0.94,0.2683971274605028
-0.21999999999999997,-0.94,0.2604467745073375
-0.19999999999999996,-0.94,0.2483890203368299
-0.17999999999999994,-0.94,0.23241402293520202
-0.16000000000000003,-0.94,0.2127737175544786
-0.14,-0.94,0.1897778435430631
-0.12,-0.94,0.16378905957118495
-0.09999999999999998,-0.94,0.13521722428702762
-0.07999999999999996,-0.94,0.10451293260100943
-0.05999999999999994,-0.94,0.07216040953487356
-0.040000000000000036,-0.94,0.03866987370383353
-0.020000000000000018,-0.94,0.004569490864221194
0.0,-0.94,-0.02960295557600142
0.020000000000000018,-0.94,-0.06330854572284209
0.040000000000000036,-0.94,-0.09601572228494143
0.06000000000000005,-0.94,-0.12720867354959503
0.08000000000000007,-0.94,-0.1563954680415934
0.10000000000000009,-0.94,-0.1831158125764516
0.1200000000000001,-0.94,-0.20694831135889502
0.14000000000000012,-0.94,-0.2275171116462798
0.15999999999999992,-0.94,-0.24449783117086818
0.17999999999999994,-0.94,-0.25762267384196735
0.19999999999999996,-0.94,-0.26668465305025274
0.21999999999999997,-0.94,-0.27154085597024596
0.24,-0.94,-0.27211469738094374
0.26,-0.94,-0.26839712746050287
0.28,-0.94,-0.2604467745073375
0.30000000000000004,-0.94,-0.2483890203368299
0.32000000000000006,-0.94,-0.23241402293520208
0.3400000000000001,-0.94,-0.21277371755447866
0.3600000000000001,-0.94,-0.1897778435430631
0.3800000000000001,-0.94,-0.16378905957118495
0.40000000000000013,-0.94,-0.13521722428702765
0.41999999999999993,-0.94,-0.10451293260100941
0.43999999999999995,-0.94,-0.07216040953487354
0.45999999999999996,-0.94,-0.03866987370383353
0.48,-0.94,-0.0045694908642212075
0.5,-0.94,0.029602955576001448
0.52,-0.94,0.06330854572284207
0.54,-0.94,0.09601572228494146
0.56,-0.94,0.127208673549595
0.5800000000000001,-0.94,0.15639546804159338
0.6000000000000001,-0.94,0.18311581257645163
0.6200000000000001,-0.94,0.20694831135889502
0.6400000000000001,-0.94,0.22751711164627983
0.6600000000000001,-0.94,0.2444978311708682
0.6799999999999999,-0.94,0.25762267384196724
0.7,-0.94,0.2666846530502528
0.72,-0.94,0.271540855970246
0.74,-0.94,0.2721146973809438
0.76,-0.94,0.2683971274605027
0.78,-0.94,0.26044677450733744
0.8,-0.94,0.2483890203368299
0.8200000000000001,-0.94,0.23241402293520197
0.8400000000000001,-0.94,0.21277371755447858
0.8600000000000001,-0.94,0.18977784354306315
0.8800000000000001,-0.94,0.16378905957118495
0.9000000000000001,-0.94,0.1352172242870276
0.9199999999999999,-0.94,0.10451293260100938
0.94,-0.94,0.07216040953487354
0.96,-0.94,0.03866987370383357
0.98,-0.94,0.004569490864221225
1.0,-0.94,-0.029602955576001413

-1.0,-0.92,-0.09200142535698594
-0.98,-0.92,-0.11539945788913007
-0.96,-0.92,-0.13697757203406785
-0.94,-0.92,-0.15639546804159332
-0.92,-0.92,-0.1733469140919786
-0.9,-0.92,-0.18756457575470636
-0.88,-0.92,-0.19882423201213587
-0.86,-0.92,-0.20694831135889483
-0.84,-0.92,-0.2118086922105952
-0.8200000000000001,-0.92,-0.21332872345775483
-0.8,-0.92,-0.21148443329958336
-0.78,-0.92,-0.2063049072936005
-0.76,-0.92,-0.1978718296590197
-0.74,-0.92,-0.18631819506781447
-0.72,-0.92,-0.17182621123929515
-0.7,-0.92,-0.15462442541552898
-0.6799999999999999,-0.92,-0.13498412003480537
-0.6599999999999999,-0.92,-0.11321503444552816
-0.64,-0.92,-0.08966048013166165
-0.62,-0.92,-0.06469192648554428
-0.6,-0.92,-0.03870314251366608
-0.5800000000000001,-0.92,-0.012103986864210735
-0.56,-0.92,0.014686055888664402
-0.54,-0.92,0.04124449076715088
-0.52,-0.92,0.06715247538797478
-0.5,-0.92,0.092001425356986
-0.48,-0.92,0.11539945788913007
-0.45999999999999996,-0.92,0.13697757203406793
-0.43999999999999995,-0.92,0.15639546804159338
-0.42000000000000004,-0.92,0.1733469140919787
-0.4,-0.92,0.1875645757547065
-0.38,-0.92,0.1988242320121358
-0.36,-0.92,0.20694831135889488
-0.33999999999999997,-0.92,0.21180869221059528
-0.31999999999999995,-0.92,0.21332872345775483
-0.29999999999999993,-0.92,0.2114844332995834
-0.28,-0.92,0.20630490729360054
-0.26,-0.92,0.19787182965901962
-0.24,-0.92,0.18631819506781444
-0.21999999999999997,-0.92,0.17182621123929515
-0.19999999999999996,-0.92,0.15462442541552884
-0.17999999999999994,-0.92,0.13498412003480537
-0.16000000000000003,-0.92,0.11321503444552819
-0.14,-0.92,0.08966048013166168
-0.12,-0.92,0.06469192648554424
-0.09999999999999998,-0.92,0.03870314251366607
-0.07999999999999996,-0.92,0.012103986864210749
-0.05999999999999994,-0.92,-0.014686055888664458
-0.040000000000000036,-0.92,-0.041244490767150886
-0.020000000000000018,-0.92,-0.06715247538797478
0.0,-0.92,-0.09200142535698602
0.020000000000000018,-0.92,-0.11539945788913007
0.040000000000000036,-0.92,-0.136977572034068
0.06000000000000005,-0.92,-0.15639546804159338
0.08000000000000007,-0.92,-0.1733469140919787
0.10000000000000009,-0.92,-0.1875645757547064
0.1200000000000001,-0.92,-0.1988242320121358
0.14000000000000012,-0.92,-0.2069483113588948
0.15999999999999992,-0.92,-0.21180869221059523
0.17999999999999994,-0.92,-0.2133287234577548
0.19999999999999996,-0.92,-0.21148443329958325
0.21999999999999997,-0.92,-0.20630490729360054
0.24,-0.92,-0.1978718296590197
0.26,-0.92,-0.18631819506781447
0.28,-0.92,-0.17182621123929515
0.30000000000000004,-0.92,-0.15462442541552893
0.32000000000000006,-0.92,-0.13498412003480542
0.3400000000000001,-0.92,-0.11321503444552815
0.3600000000000001,-0.92,-0.08966048013166175
0.3800000000000001,-0.92,-0.06469192648554427
0.40000000000000013,-0.92,-0.038703142513666085
0.41999999999999993,-0.92,-0.012103986864210735
0.43999999999999995,-0.92,0.014686055888664465
0.45999999999999996,-0.92,0.04124449076715083
0.48,-0.92,0.06715247538797481
0.5,-0.92,0.09200142535698605
0.52,-0.92,0.1153994578891301
0.54,-0.92,0.13697757203406796
0.56,-0.92,0.15639546804159335
0.5800000000000001,-0.92,0.1733469140919787
0.6000000000000001,-0.92,0.18756457575470636
0.6200000000000001,-0.92,0.1988242320121358
0.6400000000000001,-0.92,0.20694831135889485
0.6600000000000001,-0.92,0.2118086922105952
0.6799999999999999,-0.92,0.2133287234577548
0.7,-0.92,0.2114844332995833
0.72,-0.92,0.20630490729360057
0.74,-0.92,0.1978718296590196
0.76,-0.92,0.1863181950678144
0.78,-0.92,0.17182621123929517
0.8,-0.92,0.15462442541552884
0.8200000000000001,-0.92,0.13498412003480537
0.8400000000000001,-0.92,0.11321503444552825
0.8600000000000001,-0.92,0.08966048013166172
0.8800000000000001,-0.92,0.06469192648554423
0.9000000000000001,-0.92,0.03870314251366605
0.9199999999999999,-0.92,0.012103986864210735
0.94,-0.92,-0.014686055888664437
0.96,-0.92,-0.04124449076715086
0.98,-0.92,-0.06715247538797478
1.0,-0.92,-0.09200142535698594

-1.0,-0.9,-0.15294897770110338
-0.98,-0.9,-0.1656704516682118
-0.96,-0.9,-0.17577920364578195
-0.94,-0.9,-0.18311581257645151
-0.92,-0.9,-0.18756457575470636
-0.9,-0.9,-0.18905533352766288
-0.88,-0.9,-0.18756457575470611
-0.86,-0.9,-0.18311581257645115
-0.84,-0.9,-0.17577920364578148
-0.8200000000000001,-0.9,-0.16567045166821132
-0.8,-0.9,-0.15294897770110263
-0.78,-0.9,-0.13781540698835706
-0.76,-0.9,-0.12050840498047136
-0.74,-0.9,-0.10130091343781193
-0.72,-0.9,-0.08049584597600584
-0.7,-0.9,-0.05842131093727048
-0.6799999999999999,-0.9,-0.035425436925854856
-0.6599999999999999,-0.9,-0.011870882611988334
-0.64,-0.9,0.011870882611990749
-0.62,-0.9,0.03542543692585731
-0.6,-0.9,0.058421310937272805
-0.5800000000000001,-0.9,0.08049584597600781
-0.56,-0.9,0.10130091343781375
-0.54,-0.9,0.12050840498047277
-0.52,-0.9,0.13781540698835804
-0.5,-0.9,0.15294897770110338
-0.48,-0.9,0.16567045166821184
-0.45999999999999996,-0.9,0.17577920364578195
-0.43999999999999995,-0.9,0.1831158125764516
-0.42000000000000004,-0.9,0.1875645757547065
-0.4,-0.9,0.18905533352766285
-0.38,-0.9,0.18756457575470617
-0.36,-0.9,0.18311581257645126
-0.33999999999999997,-0.9,0.1757792036457815
-0.31999999999999995,-0.9,0.16567045166821137
-0.29999999999999993,-0.9,0.15294897770110266
-0.28,-0.9,0.137815406988357
-0.26,-0.9,0.12050840498047133
-0.24,-0.9,0.10130091343781195
-0.21999999999999997,-0.9,0.0804958459760057
-0.19999999999999996,-0.9,0.05842131093727045
-0.17999999999999994,-0.9,0.03542543692585487
-0.16000000000000003,-0.9,0.011870882611988348
-0.14,-0.9,-0.011870882611990777
-0.12,-0.9,-0.035425436925857305
-0.09999999999999998,-0.9,-0.05842131093727278
-0.07999999999999996,-0.9,-0.0804958459760079
-0.05999999999999994,-0.9,-0.10130091343781375
-0.040000000000000036,-0.9,-0.12050840498047274
-0.020000000000000018,-0.9,-0.137815406988358
0.0,-0.9,-0.15294897770110333
0.020000000000000018,-0.9,-0.16567045166821193
0.040000000000000036,-0.9,-0.17577920364578198
0.06000000000000005,-0.9,-0.18311581257645163
0.08000000000000007,-0.9,-0.1875645757547064
0.10000000000000009,-0.9,-0.1890553335276628
0.1200000000000001,-0.9,-0.1875645757547061
0.14000000000000012,-0.9,-0.18311581257645118
0.15999999999999992,-0.9,-0.17577920364578148
0.17999999999999994,-0.9,-0.16567045166821126
0.19999999999999996,-0.9,-0.15294897770110266
0.21999999999999997,-0.9,-0.13781540698835706
0.24,-0.9,-0.12050840498047136
0.26,-0.9,-0.10130091343781195
0.28,-0.9,-0.08049584597600579
0.30000000000000004,-0.9,-0.05842131093727051
0.32000000000000006,-0.9,-0.03542543692585483
0.3400000000000001,-0.9,-0.011870882611988424
0.3600000000000001,-0.9,0.011870882611990756
0.3800000000000001,-0.9,0.03542543692585727
0.40000000000000013,-0.9,0.05842131093727275
0.41999999999999993,-0.9,0.0804958459760079
0.43999999999999995,-0.9,0.10130091343781367
0.45999999999999996,-0.9,0.1205084049804728
0.48,-0.9,0.13781540698835804
0.5,-0.9,0.1529489777011034
0.52,-0.9,0.16567045166821187
0.54,-0.9,0.17577920364578195
0.56,-0.9,0.18311581257645157
0.5800000000000001,-0.9,0.18756457575470636
0.6000000000000001,-0.9,0.1890553335276628
0.6200000000000001,-0.9,0.18756457575470611
0.6400000000000001,-0.9,0.18311581257645118
0.6600000000000001,-0.9,0.17577920364578145
0.6799999999999999,-0.9,0.1656704516682113
0.7,-0.9,0.15294897770110266
0.72,-0.9,0.13781540698835698
0.74,-0.9,0.12050840498047133
0.76,-0.9,0.10130091343781197
0.78,-0.9,0.08049584597600574
0.8,-0.9,0.058421310937270446
0.8200000000000001,-0.9,0.035425436925854925
0.8400000000000001,-0.9,0.011870882611988369
0.8600000000000001,-0.9,-0.01187088261199079
0.8800000000000001,-0.9,-0.035425436925857326
0.9000000000000001,-0.9,-0.05842131093727278
0.9199999999999999,-0.9,-0.08049584597600787
0.94,-0.9,-0.10130091343781372
0.96,-0.9,-0.12050840498047277
0.98,-0.9,-0.13781540698835798
1.0,-0.9,-0.15294897770110338

-1.0,-0.88,-0.2114844332995837
-0.98,-0.88,-0.21332872345775516
-0.96,-0.88,-0.21180869221059545
-0.94,-0.88,-0.206948311358895
-0.92,-0.88,-0.19882423201213587
-0.9,-0.88,-0.18756457575470614
-0.88,-0.88,-0.1733469140919782
-0.86,-0.88,-0.15639546804159282
-0.84,-0.88,-0.13697757203406738
-0.8200000000000001,-0.88,-0.11539945788912934
-0.8,-0.88,-0.09200142535698508
-0.78,-0.88,-0.06715247538797353
-0.76,-0.88,-0.04124449076714932
-0.74,-0.88,-0.014686055888662654
-0.72,-0.88,0.012103986864212837
-0.7,-0.88,0.03870314251366843
-0.6799999999999999,-0.88,0.0646919264855467
-0.6599999999999999,-0.88,0.08966048013166417
-0.64,-0.88,0.11321503444553077
-0.62,-0.88,0.134984120034808
-0.6,-0.88,0.1546244254155313
-0.5800000000000001,-0.88,0.1718262112392973
-0.56,-0.88,0.1863181950678162
-0.54,-0.88,0.1978718296590208
-0.52,-0.88,0.2063049072936012
-0.5,-0.88,0.21148443329958372
-0.48,-0.88,0.21332872345775514
-0.45999999999999996,-0.88,0.21180869221059548
-0.43999999999999995,-0.88,0.20694831135889513
-0.42000000000000004,-0.88,0.19882423201213584
-0.4,-0.88,0.18756457575470617
-0.38,-0.88,0.1733469140919783
-0.36,-0.88,0.15639546804159285
-0.33999999999999997,-0.88,0.1369775720340674
-0.31999999999999995,-0.88,0.11539945788912931
-0.29999999999999993,-0.88,0.09200142535698502
-0.28,-0.88,0.06715247538797349
-0.26,-0.88,0.041244490767149276
-0.24,-0.88,0.014686055888662564
-0.21999999999999997,-0.88,-0.012103986864212893
-0.19999999999999996,-0.88,-0.03870314251366841
-0.17999999999999994,-0.88,-0.0646919264855467
-0.16000000000000003,-0.88,-0.0896604801316642
-0.14,-0.88,-0.11321503444553077
-0.12,-0.88,-0.13498412003480798
-0.09999999999999998,-0.88,-0.1546244254155314
-0.07999999999999996,-0.88,-0.17182621123929734
-0.05999999999999994,-0.88,-0.18631819506781616
-0.040000000000000036,-0.88,-0.19787182965902075
-0.020000000000000018,-0.88,-0.20630490729360118
0.0,-0.88,-0.21148443329958388
0.020000000000000018,-0.88,-0.21332872345775522
0.040000000000000036,-0.88,-0.2118086922105955
0.06000000000000005,-0.88,-0.20694831135889508
0.08000000000000007,-0.88,-0.19882423201213578
0.10000000000000009,-0.88,-0.18756457575470611
0.1200000000000001,-0.88,-0.1733469140919782
0.14000000000000012,-0.88,-0.1563954680415928
0.15999999999999992,-0.88,-0.13697757203406732
0.17999999999999994,-0.88,-0.11539945788912931
0.19999999999999996,-0.88,-0.09200142535698506
0.21999999999999997,-0.88,-0.0671524753879735
0.24,-0.88,-0.04124449076714931
0.26,-0.88,-0.014686055888662612
0.28,-0.88,0.012103986864212816
0.30000000000000004,-0.88,0.03870314251366846
0.32000000000000006,-0.88,0.06469192648554661
0.3400000000000001,-0.88,0.08966048013166417
0.3600000000000001,-0.88,0.11321503444553074
0.3800000000000001,-0.88,0.13498412003480792
0.40000000000000013,-0.88,0.15462442541553142
0.41999999999999993,-0.88,0.17182621123929723
0.43999999999999995,-0.88,0.18631819506781624
0.45999999999999996,-0.88,0.19787182965902075
0.48,-0.88,0.20630490729360124
0.5,-0.88,0.21148443329958377
0.52,-0.88,0.21332872345775516
0.54,-0.88,0.21180869221059548
0.56,-0.88,0.206948311358895
0.5800000000000001,-0.88,0.1988242320121358
0.6000000000000001,-0.88,0.18756457575470611
0.6200000000000001,-0.88,0.17334691409197822
0.6400000000000001,-0.88,0.15639546804159277
0.6600000000000001,-0.88,0.13697757203406732
0.6799999999999999,-0.88,0.11539945788912932
0.7,-0.88,0.092001425356985
0.72,-0.88,0.06715247538797348
0.74,-0.88,0.04124449076714932
0.76,-0.88,0.014686055888662612
0.78,-0.88,-0.012103986864212893
0.8,-0.88,-0.03870314251366837
0.8200000000000001,-0.88,-0.06469192648554664
0.8400000000000001,-0.88,-0.08966048013166421
0.8600000000000001,-0.88,-0.11321503444553077
0.8800000000000001,-0.88,-0.13498412003480795
0.9000000000000001,-0.88,-0.15462442541553137
0.9199999999999999,-0.88,-0.1718262112392973
0.94,-0.88,-0.18631819506781616
0.96,-0.88,-0.19787182965902073
0.98,-0.88,-0.20630490729360118
1.0,-0.88,-0.2114844332995837

-1.0,-0.86,-0.266684653050253
-0.98,-0.86,-0.2576226738419674
-0.96,-0.86,-0.24449783117086826
-0.94,-0.86,-0.22751711164627986
-0.92,-0.86,-0.20694831135889488
-0.9,-0.86,-0.18311581257645118
-0.88,-0.86,-0.15639546804159282
-0.86,-0.86,-0.12720867354959442
-0.84,-0.86,-0.09601572228494065
-0.8200000000000001,-0.86,-0.06330854572284111
-0.8,-0.86,-0.029602955576000237
-0.78,-0.86,0.004569490864222647
-0.76,-0.86,0.03866987370383522
-0.74,-0.86,0.07216040953487554
-0.72,-0.86,0.10451293260101174
-0.7,-0.86,0.13521722428703012
-0.6799999999999999,-0.86,0.16378905957118756
-0.6599999999999999,-0.86,0.18977784354306595
-0.64,-0.86,0.2127737175544816
-0.62,-0.86,0.2324140229352049
-0.6,-0.86,0.24838902033683255
-0.5800000000000001,-0.86,0.2604467745073397
-0.56,-0.86,0.26839712746050426
-0.54,-0.86,0.2721146973809444
-0.52,-0.86,0.27154085597024635
-0.5,-0.86,0.26668465305025296
-0.48,-0.86,0.2576226738419674
-0.45999999999999996,-0.86,0.2444978311708684
-0.43999999999999995,-0.86,0.22751711164627983
-0.42000000000000004,-0.86,0.2069483113588949
-0.4,-0.86,0.18311581257645126
-0.38,-0.86,0.15639546804159288
-0.36,-0.86,0.12720867354959445
-0.33999999999999997,-0.86,0.09601572228494062
-0.31999999999999995,-0.86,0.06330854572284106
-0.29999999999999993,-0.86,0.029602955576000182
-0.28,-0.86,-0.00456949086422271
-0.26,-0.86,-0.03866987370383528
-0.24,-0.86,-0.07216040953487562
-0.21999999999999997,-0.86,-0.1045129326010117
-0.19999999999999996,-0.86,-0.13521722428703012
-0.17999999999999994,-0.86,-0.16378905957118756
-0.16000000000000003,-0.86,-0.18977784354306593
-0.14,-0.86,-0.21277371755448157
-0.12,-0.86,-0.23241402293520502
-0.09999999999999998,-0.86,-0.2483890203368326
-0.07999999999999996,-0.86,-0.26044677450733966
-0.05999999999999994,-0.86,-0.2683971274605042
-0.040000000000000036,-0.86,-0.2721146973809444
-0.020000000000000018,-0.86,-0.2715408559702465
0.0,-0.86,-0.266684653050253
0.020000000000000018,-0.86,-0.2576226738419675
0.040000000000000036,-0.86,-0.24449783117086835
0.06000000000000005,-0.86,-0.2275171116462798
0.08000000000000007,-0.86,-0.20694831135889488
0.10000000000000009,-0.86,-0.18311581257645118
0.1200000000000001,-0.86,-0.1563954680415928
0.14000000000000012,-0.86,-0.12720867354959436
0.15999999999999992,-0.86,-0.09601572228494062
0.17999999999999994,-0.86,-0.06330854572284109
0.19999999999999996,-0.86,-0.02960295557600021
0.21999999999999997,-0.86,0.004569490864222661
0.24,-0.86,0.03866987370383525