TITLE = "Solution" 
VARIABLES = "x", "y", "sol" 
ZONE STRANDID=1, SOLUTIONTIME= 0.18, I= 101, J =101, DATAPACKING=POINT 
-1.0,-1.0,0.7523066665188116
-0.98,-1.0,0.6980890456395976
-0.96,-1.0,0.6328621434924648
-0.94,-1.0,0.5576546272889364
-0.92,-1.0,0.4736525644863348
-0.9,-1.0,0.38218071779545604
-0.88,-1.0,0.2846816528812485
-0.86,-1.0,0.18269298824052738
-0.84,-1.0,0.07782314603975175
-0.8200000000000001,-1.0,-0.028274013663364794
-0.8,-1.0,-0.133925275280933
-0.78,-1.0,-0.23746445530423924
-0.76,-1.0,-0.3372586790130079
-0.74,-1.0,-0.4317341318851722
-0.72,-1.0,-0.5194008795920381
-0.7,-1.0,-0.5988763651526916
-0.6799999999999999,-1.0,-0.6689072126834875
-0.6599999999999999,-1.0,-0.7283889938844648
-0.64,-1.0,-0.7763836455333899
-0.62,-1.0,-0.8121342633031442
-0.6,-1.0,-0.8350770385951151
-0.5800000000000001,-1.0,-0.8448501501375982
-0.56,-1.0,-0.8412994701233948
-0.54,-1.0,-0.8244809948974023
-0.52,-1.0,-0.7946599618608051
-0.5,-1.0,-0.7523066665188118
-0.48,-1.0,-0.6980890456395975
-0.45999999999999996,-1.0,-0.632862143492465
-0.43999999999999995,-1.0,-0.5576546272889364
-0.42000000000000004,-1.0,-0.4736525644863347
-0.4,-1.0,-0.38218071779545604
-0.38,-1.0,-0.28468165288124836
-0.36,-1.0,-0.18269298824052718
-0.33999999999999997,-1.0,-0.07782314603975166
-0.31999999999999995,-1.0,0.028274013663364836
-0.29999999999999993,-1.0,0.13392527528093298
-0.28,-1.0,0.23746445530423918
-0.26,-1.0,0.3372586790130079
-0.24,-1.0,0.43173413188517207
-0.21999999999999997,-1.0,0.519400879592038
-0.19999999999999996,-1.0,0.5988763651526916
-0.17999999999999994,-1.0,0.6689072126834875
-0.16000000000000003,-1.0,0.7283889938844647
-0.14,-1.0,0.7763836455333898
-0.12,-1.0,0.8121342633031443
-0.09999999999999998,-1.0,0.8350770385951152
-0.07999999999999996,-1.0,0.8448501501375981
-0.05999999999999994,-1.0,0.8412994701233947
-0.040000000000000036,-1.0,0.8244809948974023
-0.020000000000000018,-1.0,0.7946599618608051
0.0,-1.0,0.7523066665188117
0.020000000000000018,-1.0,0.6980890456395976
0.040000000000000036,-1.0,0.6328621434924648
0.06000000000000005,-1.0,0.5576546272889364
0.08000000000000007,-1.0,0.47365256448633447
0.10000000000000009,-1.0,0.38218071779545576
0.1200000000000001,-1.0,0.28468165288124825
0.14000000000000012,-1.0,0.1826929882405271
0.15999999999999992,-1.0,0.07782314603975163
0.17999999999999994,-1.0,-0.0282740136633648
0.19999999999999996,-1.0,-0.1339252752809329
0.21999999999999997,-1.0,-0.23746445530423915
0.24,-1.0,-0.3372586790130079
0.26,-1.0,-0.4317341318851721
0.28,-1.0,-0.5194008795920381
0.30000000000000004,-1.0,-0.5988763651526916
0.32000000000000006,-1.0,-0.6689072126834875
0.3400000000000001,-1.0,-0.7283889938844645
0.3600000000000001,-1.0,-0.7763836455333899
0.3800000000000001,-1.0,-0.812134263303144
0.40000000000000013,-1.0,-0.8350770385951151
0.41999999999999993,-1.0,-0.844850150137598
0.43999999999999995,-1.0,-0.8412994701233947
0.45999999999999996,-1.0,-0.8244809948974023
0.48,-1.0,-0.794659961860805
0.5,-1.0,-0.7523066665188117
0.52,-1.0,-0.6980890456395976
0.54,-1.0,-0.6328621434924646
0.56,-1.0,-0.5576546272889362
0.5800000000000001,-1.0,-0.47365256448633447
0.6000000000000001,-1.0,-0.3821807177954559
0.6200000000000001,-1.0,-0.2846816528812484
0.6400000000000001,-1.0,-0.18269298824052735
0.6600000000000001,-1.0,-0.07782314603975181
0.6799999999999999,-1.0,0.028274013663364628
0.7,-1.0,0.1339252752809328
0.72,-1.0,0.23746445530423904
0.74,-1.0,0.33725867901300777
0.76,-1.0,0.431734131885172
0.78,-1.0,0.519400879592038
0.8,-1.0,0.5988763651526915
0.8200000000000001,-1.0,0.6689072126834875
0.8400000000000001,-1.0,0.7283889938844648
0.8600000000000001,-1.0,0.7763836455333898
0.8800000000000001,-1.0,0.8121342633031442
0.9000000000000001,-1.0,0.8350770385951152
0.9199999999999999,-1.0,0.8448501501375982
0.94,-1.0,0.8412994701233947
0.96,-1.0,0.8244809948974025
0.98,-1.0,0.7946599618608051
1.0,-1.0,0.7523066665188117

-1.0,-0.98,0.6980890456395976
-0.98,-0.98,0.6464843174270032
-0.96,-0.98,0.5846841453375732
-0.94,-0.98,0.5136631550027914
-0.92,-0.98,0.4345413898661199
-0.9,-0.98,0.3485666474288158
-0.88,-0.98,0.2570948007379373
-0.86,-0.98,0.1615684154584316
-0.84,-0.98,0.06349399975085332
-0.8200000000000001,-0.98,-0.03558175426227292
-0.8,-0.98,-0.13409636275517334
-0.78,-0.98,-0.23049619150214035
-0.76,-0.98,-0.32326095761736795
-0.74,-0.98,-0.41092770532423384
-0.72,-0.98,-0.49211387764182407
-0.7,-0.98,-0.5655391201344216
-0.6799999999999999,-0.98,-0.6300454728658047
-0.6599999999999999,-0.98,-0.6846156321191719
-0.64,-0.98,-0.7283889938844647
-0.62,-0.98,-0.7606752260977054
-0.6,-0.98,-0.7809651555900311
-0.5800000000000001,-0.98,-0.788938798052731
-0.56,-0.98,-0.7844704043809456
-0.54,-0.98,-0.7676304438121683
-0.52,-0.98,-0.7386844925842734
-0.5,-0.98,-0.6980890456395975
-0.48,-0.98,-0.6464843174270032
-0.45999999999999996,-0.98,-0.5846841453375732
-0.43999999999999995,-0.98,-0.5136631550027912
-0.42000000000000004,-0.98,-0.4345413898661199
-0.4,-0.98,-0.34856664742881577
-0.38,-0.98,-0.25709480073793706
-0.36,-0.98,-0.16156841545843142
-0.33999999999999997,-0.98,-0.06349399975085318
-0.31999999999999995,-0.98,0.035581754262272954
-0.29999999999999993,-0.98,0.13409636275517328
-0.28,-0.98,0.23049619150214032
-0.26,-0.98,0.32326095761736784
-0.24,-0.98,0.41092770532423367
-0.21999999999999997,-0.98,0.49211387764182396
-0.19999999999999996,-0.98,0.5655391201344215
-0.17999999999999994,-0.98,0.6300454728658046
-0.16000000000000003,-0.98,0.6846156321191718
-0.14,-0.98,0.7283889938844645
-0.12,-0.98,0.7606752260977053
-0.09999999999999998,-0.98,0.7809651555900308
-0.07999999999999996,-0.98,0.788938798052731
-0.05999999999999994,-0.98,0.7844704043809456
-0.040000000000000036,-0.98,0.7676304438121684
-0.020000000000000018,-0.98,0.7386844925842734
0.0,-0.98,0.6980890456395976
0.020000000000000018,-0.98,0.6464843174270033
0.040000000000000036,-0.98,0.5846841453375731
0.06000000000000005,-0.98,0.5136631550027911
0.08000000000000007,-0.98,0.43454138986611973
0.10000000000000009,-0.98,0.3485666474288156
0.1200000000000001,-0.98,0.25709480073793695
0.14000000000000012,-0.98,0.16156841545843134
0.15999999999999992,-0.98,0.0634939997508532
0.17999999999999994,-0.98,-0.035581754262272905
0.19999999999999996,-0.98,-0.13409636275517328
0.21999999999999997,-0.98,-0.2304961915021403
0.24,-0.98,-0.32326095761736784
0.26,-0.98,-0.41092770532423384
0.28,-0.98,-0.4921138776418241
0.30000000000000004,-0.98,-0.5655391201344216
0.32000000000000006,-0.98,-0.6300454728658045
0.3400000000000001,-0.98,-0.6846156321191719
0.3600000000000001,-0.98,-0.7283889938844644
0.3800000000000001,-0.98,-0.7606752260977052
0.40000000000000013,-0.98,-0.7809651555900308
0.41999999999999993,-0.98,-0.7889387980527311
0.43999999999999995,-0.98,-0.7844704043809458
0.45999999999999996,-0.98,-0.7676304438121684
0.48,-0.98,-0.7386844925842733
0.5,-0.98,-0.6980890456395976
0.52,-0.98,-0.646484317427003
0.54,-0.98,-0.5846841453375728
0.56,-0.98,-0.5136631550027911
0.5800000000000001,-0.98,-0.4345413898661198
0.6000000000000001,-0.98,-0.3485666474288157
0.6200000000000001,-0.98,-0.25709480073793717
0.6400000000000001,-0.98,-0.16156841545843156
0.6600000000000001,-0.98,-0.06349399975085337
0.6799999999999999,-0.98,0.03558175426227277
0.7,-0.98,0.13409636275517317
0.72,-0.98,0.23049619150214018
0.74,-0.98,0.32326095761736773
0.76,-0.98,0.41092770532423367
0.78,-0.98,0.49211387764182396
0.8,-0.98,0.5655391201344218
0.8200000000000001,-0.98,0.6300454728658048
0.8400000000000001,-0.98,0.6846156321191719
0.8600000000000001,-0.98,0.7283889938844645
0.8800000000000001,-0.98,0.7606752260977053
0.9000000000000001,-0.98,0.7809651555900309
0.9199999999999999,-0.98,0.788938798052731
0.94,-0.98,0.784470404380946
0.96,-0.98,0.7676304438121685
0.98,-0.98,0.7386844925842734
1.0,-0.98,0.6980890456395976

-1.0,-0.96,0.6328621434924648
-0.98,-0.96,0.5846841453375732
-0.96,-0.96,0.5272853289373296
-0.94,-0.96,0.4615709079147566
-0.92,-0.96,0.38857723794527244
-0.9,-0.96,0.30945547280860114
-0.88,-0.96,0.22545341000599908
-0.86,-0.96,0.13789581224826336
-0.84,-0.96,0.04816351515640696
-0.8200000000000001,-0.96,-0.04232834934095526
-0.8,-0.96,-0.13215267048348034
-0.78,-0.96,-0.2198928650683021
-0.76,-0.96,-0.30416521781336625
-0.74,-0.96,-0.38364070337401984
-0.72,-0.96,-0.4570659458666174
-0.7,-0.96,-0.5232829853549371
-0.6799999999999999,-0.96,-0.581247539570106
-0.6599999999999999,-0.96,-0.6300454728658046
-0.64,-0.96,-0.6689072126834876
-0.62,-0.96,-0.6972198861713514
-0.6,-0.96,-0.7145369855553214
-0.5800000000000001,-0.96,-0.7205854098333784
-0.56,-0.96,-0.7152697717415045
-0.54,-0.96,-0.6986739020678168
-0.52,-0.96,-0.6710595275909609
-0.5,-0.96,-0.6328621434924648
-0.48,-0.96,-0.5846841453375732
-0.45999999999999996,-0.96,-0.5272853289373296
-0.43999999999999995,-0.96,-0.46157090791475663
-0.42000000000000004,-0.96,-0.3885772379452725
-0.4,-0.96,-0.3094554728086009
-0.38,-0.96,-0.2254534100059989
-0.36,-0.96,-0.13789581224826314
-0.33999999999999997,-0.96,-0.048163515156406884
-0.31999999999999995,-0.96,0.04232834934095528
-0.29999999999999993,-0.96,0.1321526704834803
-0.28,-0.96,0.21989286506830205
-0.26,-0.96,0.30416521781336614
-0.24,-0.96,0.3836407033740198
-0.21999999999999997,-0.96,0.45706594586661736
-0.19999999999999996,-0.96,0.523282985354937
-0.17999999999999994,-0.96,0.581247539570106
-0.16000000000000003,-0.96,0.6300454728658046
-0.14,-0.96,0.6689072126834874
-0.12,-0.96,0.6972198861713511
-0.09999999999999998,-0.96,0.7145369855553213
-0.07999999999999996,-0.96,0.7205854098333786
-0.05999999999999994,-0.96,0.7152697717415046
-0.040000000000000036,-0.96,0.6986739020678168
-0.020000000000000018,-0.96,0.6710595275909608
0.0,-0.96,0.632862143492465
0.020000000000000018,-0.96,0.5846841453375731
0.040000000000000036,-0.96,0.5272853289373295
0.06000000000000005,-0.96,0.4615709079147565
0.08000000000000007,-0.96,0.38857723794527227
0.10000000000000009,-0.96,0.30945547280860086
0.1200000000000001,-0.96,0.22545341000599875
0.14000000000000012,-0.96,0.1378958122482631
0.15999999999999992,-0.96,0.04816351515640687
0.17999999999999994,-0.96,-0.042328349340955244
0.19999999999999996,-0.96,-0.13215267048348026
0.21999999999999997,-0.96,-0.219892865068302
0.24,-0.96,-0.3041652178133662
0.26,-0.96,-0.3836407033740199
0.28,-0.96,-0.4570659458666175
0.30000000000000004,-0.96,-0.523282985354937
0.32000000000000006,-0.96,-0.5812475395701061
0.3400000000000001,-0.96,-0.6300454728658045
0.3600000000000001,-0.96,-0.6689072126834873
0.3800000000000001,-0.96,-0.6972198861713512
0.40000000000000013,-0.96,-0.7145369855553215
0.41999999999999993,-0.96,-0.7205854098333786
0.43999999999999995,-0.96,-0.7152697717415045
0.45999999999999996,-0.96,-0.6986739020678167
0.48,-0.96,-0.671059527590961
0.5,-0.96,-0.6328621434924648
0.52,-0.96,-0.584684145337573
0.54,-0.96,-0.5272853289373295
0.56,-0.96,-0.46157090791475647
0.5800000000000001,-0.96,-0.3885772379452724
0.6000000000000001,-0.96,-0.309455472808601
0.6200000000000001,-0.96,-0.22545341000599894
0.6400000000000001,-0.96,-0.1378958122482633
0.6600000000000001,-0.96,-0.048163515156407044
0.6799999999999999,-0.96,0.04232834934095514
0.7,-0.96,0.13215267048348017
0.72,-0.96,0.2198928650683019
0.74,-0.96,0.30416521781336614
0.76,-0.96,0.38364070337401973
0.78,-0.96,0.4570659458666174
0.8,-0.96,0.5232829853549372
0.8200000000000001,-0.96,0.581247539570106
0.8400000000000001,-0.96,0.6300454728658046
0.8600000000000001,-0.96,0.6689072126834874
0.8800000000000001,-0.96,0.6972198861713512
0.9000000000000001,-0.96,0.7145369855553214
0.9199999999999999,-0.96,0.7205854098333787
0.94,-0.96,0.7152697717415046
0.96,-0.96,0.6986739020678168
0.98,-0.96,0.6710595275909609
1.0,-0.96,0.6328621434924648

-1.0,-0.94,0.5576546272889364
-0.98,-0.94,0.5136631550027912
-0.96,-0.94,0.4615709079147565
-0.94,-0.94,0.4021994118798108
-0.92,-0.94,0.33648499085723776
-0.9,-0.94,0.2654640005224558
-0.88,-0.94,0.19025648431892736
-0.86,-0.94,0.11204850970397452
-0.84,-0.94,0.03207346315645477
-0.8200000000000001,-0.94,-0.0484074010648005
-0.8,-0.94,-0.1281248516540841
-0.78,-0.94,-0.2058216967947063
-0.76,-0.94,-0.28027261082495397
-0.74,-0.94,-0.3503034583557499
-0.72,-0.94,-0.414809811087133
-0.7,-0.94,-0.4727743653023019
-0.6799999999999999,-0.94,-0.5232829853549371
-0.6599999999999999,-0.94,-0.5655391201344218
-0.64,-0.94,-0.5988763651526915
-0.62,-0.94,-0.6227689721411035
-0.6,-0.94,-0.636840140414699
-0.5800000000000001,-0.94,-0.6408679592440951
-0.56,-0.94,-0.6347889075202495
-0.54,-0.94,-0.6186988555202971
-0.52,-0.94,-0.5928515529760082
-0.5,-0.94,-0.5576546272889364
-0.48,-0.94,-0.5136631550027912
-0.45999999999999996,-0.94,-0.46157090791475663
-0.43999999999999995,-0.94,-0.4021994118798109
-0.42000000000000004,-0.94,-0.3364849908572377
-0.4,-0.94,-0.26546400052245567
-0.38,-0.94,-0.19025648431892714
-0.36,-0.94,-0.11204850970397441
-0.33999999999999997,-0.94,-0.032073463156454686
-0.31999999999999995,-0.94,0.048407401064800515
-0.29999999999999993,-0.94,0.12812485165408408
-0.28,-0.94,0.20582169679470624
-0.26,-0.94,0.2802726108249539
-0.24,-0.94,0.3503034583557499
-0.21999999999999997,-0.94,0.41480981108713283
-0.19999999999999996,-0.94,0.4727743653023018
-0.17999999999999994,-0.94,0.5232829853549371
-0.16000000000000003,-0.94,0.5655391201344216
-0.14,-0.94,0.5988763651526913
-0.12,-0.94,0.6227689721411036
-0.09999999999999998,-0.94,0.6368401404146992
-0.07999999999999996,-0.94,0.640867959244095
-0.05999999999999994,-0.94,0.6347889075202495
-0.040000000000000036,-0.94,0.6186988555202971
-0.020000000000000018,-0.94,0.5928515529760083
0.0,-0.94,0.5576546272889364
0.020000000000000018,-0.94,0.5136631550027912
0.040000000000000036,-0.94,0.4615709079147566
0.06000000000000005,-0.94,0.40219941187981073
0.08000000000000007,-0.94,0.3364849908572376
0.10000000000000009,-0.94,0.2654640005224555
0.1200000000000001,-0.94,0.19025648431892708
0.14000000000000012,-0.94,0.11204850970397434
0.15999999999999992,-0.94,0.032073463156454714
0.17999999999999994,-0.94,-0.048407401064800466
0.19999999999999996,-0.94,-0.128124851654084
0.21999999999999997,-0.94,-0.20582169679470624
0.24,-0.94,-0.28027261082495397
0.26,-0.94,-0.35030345835574994
0.28,-0.94,-0.414809811087133
0.30000000000000004,-0.94,-0.47277436530230194
0.32000000000000006,-0.94,-0.5232829853549371
0.3400000000000001,-0.94,-0.5655391201344215
0.3600000000000001,-0.94,-0.5988763651526913
0.3800000000000001,-0.94,-0.6227689721411036
0.40000000000000013,-0.94,-0.6368401404146992
0.41999999999999993,-0.94,-0.640867959244095
0.43999999999999995,-0.94,-0.6347889075202494
0.45999999999999996,-0.94,-0.618698855520297
0.48,-0.94,-0.5928515529760083
0.5,-0.94,-0.5576546272889363
0.52,-0.94,-0.5136631550027911
0.54,-0.94,-0.46157090791475647
0.56,-0.94,-0.4021994118798106
0.5800000000000001,-0.94,-0.3364849908572376
0.6000000000000001,-0.94,-0.2654640005224556
0.6200000000000001,-0.94,-0.19025648431892728
0.6400000000000001,-0.94,-0.11204850970397455
0.6600000000000001,-0.94,-0.03207346315645482
0.6799999999999999,-0.94,0.04840740106480037
0.7,-0.94,0.1281248516540839
0.72,-0.94,0.20582169679470616
0.74,-0.94,0.2802726108249539
0.76,-0.94,0.3503034583557499
0.78,-0.94,0.41480981108713305
0.8,-0.94,0.4727743653023017
0.8200000000000001,-0.94,0.5232829853549371
0.8400000000000001,-0.94,0.5655391201344218
0.8600000000000001,-0.94,0.5988763651526913
0.8800000000000001,-0.94,0.6227689721411036
0.9000000000000001,-0.94,0.6368401404146993
0.9199999999999999,-0.94,0.640867959244095
0.94,-0.94,0.6347889075202495
0.96,-0.94,0.6186988555202971
0.98,-0.94,0.5928515529760082
1.0,-0.94,0.5576546272889364

-1.0,-0.92,0.47365256448633475
-0.98,-0.92,0.43454138986611984
-0.96,-0.92,0.3885772379452725
-0.94,-0.92,0.33648499085723776
-0.92,-0.92,0.27908617445699413
-0.9,-0.92,0.21728600236756412
-0.88,-0.92,0.15205910022043131
-0.86,-0.92,0.08443413522711887
-0.84,-0.92,0.01547759348276706
-0.8200000000000001,-0.92,-0.05372303915667414
-0.8,-0.92,-0.12207642737602652
-0.78,-0.92,-0.18850459741073605
-0.76,-0.92,-0.25195993733708993
-0.74,-0.92,-0.31144171853806724
-0.72,-0.92,-0.36601187779143435
-0.7,-0.92,-0.414809811087133
-0.6799999999999999,-0.92,-0.4570659458666176
-0.6599999999999999,-0.92,-0.492113877641824
-0.64,-0.92,-0.5194008795920378
-0.62,-0.92,-0.5384966193960393
-0.6,-0.92,-0.5490999458298775
-0.5800000000000001,-0.92,-0.5510436381015701
-0.56,-0.92,-0.5442970430228876
-0.54,-0.92,-0.5289665584284412
-0.52,-0.92,-0.5052939552182728
-0.5,-0.92,-0.4736525644863347
-0.48,-0.92,-0.4345413898661199
-0.45999999999999996,-0.92,-0.38857723794527255
-0.43999999999999995,-0.92,-0.33648499085723776
-0.42000000000000004,-0.92,-0.2790861744569941
-0.4,-0.92,-0.21728600236756396
-0.38,-0.92,-0.15205910022043123
-0.36,-0.92,-0.08443413522711872
-0.33999999999999997,-0.92,-0.015477593482767015
-0.31999999999999995,-0.92,0.05372303915667415
-0.29999999999999993,-0.92,0.12207642737602649
-0.28,-0.92,0.18850459741073597
-0.26,-0.92,0.25195993733708993
-0.24,-0.92,0.31144171853806707
-0.21999999999999997,-0.92,0.3660118777914343
-0.19999999999999996,-0.92,0.41480981108713294
-0.17999999999999994,-0.92,0.4570659458666175
-0.16000000000000003,-0.92,0.49211387764182396
-0.14,-0.92,0.5194008795920378
-0.12,-0.92,0.5384966193960394
-0.09999999999999998,-0.92,0.5490999458298774
-0.07999999999999996,-0.92,0.5510436381015702
-0.05999999999999994,-0.92,0.5442970430228875
-0.040000000000000036,-0.92,0.5289665584284412
-0.020000000000000018,-0.92,0.5052939552182728
0.0,-0.92,0.47365256448633475
0.020000000000000018,-0.92,0.43454138986611995
0.040000000000000036,-0.92,0.3885772379452725
0.06000000000000005,-0.92,0.33648499085723765
0.08000000000000007,-0.92,0.27908617445699396
0.10000000000000009,-0.92,0.21728600236756387
0.1200000000000001,-0.92,0.1520591002204311
0.14000000000000012,-0.92,0.0844341352271187
0.15999999999999992,-0.92,0.015477593482767026
0.17999999999999994,-0.92,-0.05372303915667409
0.19999999999999996,-0.92,-0.12207642737602649
0.21999999999999997,-0.92,-0.188504597410736
0.24,-0.92,-0.25195993733709
0.26,-0.92,-0.3114417185380672
0.28,-0.92,-0.36601187779143446
0.30000000000000004,-0.92,-0.414809811087133
0.32000000000000006,-0.92,-0.4570659458666175
0.3400000000000001,-0.92,-0.4921138776418239
0.3600000000000001,-0.92,-0.5194008795920378
0.3800000000000001,-0.92,-0.5384966193960393
0.40000000000000013,-0.92,-0.5490999458298774
0.41999999999999993,-0.92,-0.55104363810157
0.43999999999999995,-0.92,-0.5442970430228875
0.45999999999999996,-0.92,-0.5289665584284411
0.48,-0.92,-0.5052939552182728
0.5,-0.92,-0.4736525644863346
0.52,-0.92,-0.4345413898661198
0.54,-0.92,-0.3885772379452724
0.56,-0.92,-0.3364849908572376
0.5800000000000001,-0.92,-0.2790861744569939
0.6000000000000001,-0.92,-0.21728600236756404
0.6200000000000001,-0.92,-0.15205910022043134
0.6400000000000001,-0.92,-0.08443413522711885
0.6600000000000001,-0.92,-0.01547759348276713
0.6799999999999999,-0.92,0.053723039156674014
0.7,-0.92,0.1220764273760264
0.72,-0.92,0.18850459741073594
0.74,-0.92,0.25195993733708993
0.76,-0.92,0.3114417185380672
0.78,-0.92,0.3660118777914343
0.8,-0.92,0.414809811087133
0.8200000000000001,-0.92,0.4570659458666176
0.8400000000000001,-0.92,0.49211387764182385
0.8600000000000001,-0.92,0.5194008795920378
0.8800000000000001,-0.92,0.5384966193960394
0.9000000000000001,-0.92,0.5490999458298774
0.9199999999999999,-0.92,0.5510436381015701
0.94,-0.92,0.5442970430228876
0.96,-0.92,0.5289665584284412
0.98,-0.92,0.5052939552182728
1.0,-0.92,0.47365256448633475

-1.0,-0.9,0.38218071779545604
-0.98,-0.9,0.3485666474288158
-0.96,-0.9,0.30945547280860103
-0.94,-0.9,0.2654640005224558
-0.92,-0.9,0.2172860023675641
-0.9,-0.9,0.1656812741549697
-0.88,-0.9,0.1114636532757557
-0.86,-0.9,0.0554881839992239
-0.84,-0.9,-0.0013623670860100972
-0.8200000000000001,-0.9,-0.058191432828459025
-0.8,-0.9,-0.11410278491332615
-0.78,-0.9,-0.16821466791841028
-0.76,-0.9,-0.21967370512384926
-0.74,-0.9,-0.26766835677277445
-0.72,-0.9,-0.31144171853806724
-0.7,-0.9,-0.35030345835575005
-0.6799999999999999,-0.9,-0.3836407033740199
-0.6599999999999999,-0.9,-0.41092770532423384
-0.64,-0.9,-0.43173413188517196
-0.62,-0.9,-0.44573185328081194
-0.6,-0.9,-0.4527001170829105
-0.5800000000000001,-0.9,-0.45252902960867
-0.56,-0.9,-0.4452212890097617
-0.54,-0.9,-0.43089214272086324
-0.52,-0.9,-0.40976756993876734
-0.5,-0.9,-0.38218071779545604
-0.48,-0.9,-0.34856664742881593
-0.45999999999999996,-0.9,-0.30945547280860114
-0.43999999999999995,-0.9,-0.2654640005224558
-0.42000000000000004,-0.9,-0.217286002367564
-0.4,-0.9,-0.1656812741549696
-0.38,-0.9,-0.11146365327575553
-0.36,-0.9,-0.055488183999223825
-0.33999999999999997,-0.9,0.001362367086010132
-0.31999999999999995,-0.9,0.058191432828459025
-0.29999999999999993,-0.9,0.11410278491332612
-0.28,-0.9,0.16821466791841025
-0.26,-0.9,0.21967370512384918
-0.24,-0.9,0.2676683567727744
-0.21999999999999997,-0.9,0.3114417185380672
-0.19999999999999996,-0.9,0.35030345835574994
-0.17999999999999994,-0.9,0.38364070337401984
-0.16000000000000003,-0.9,0.4109277053242337
-0.14,-0.9,0.431734131885172
-0.12,-0.9,0.4457318532808119
-0.09999999999999998,-0.9,0.4527001170829106
-0.07999999999999996,-0.9,0.4525290296086699
-0.05999999999999994,-0.9,0.4452212890097617
-0.040000000000000036,-0.9,0.43089214272086324
-0.020000000000000018,-0.9,0.40976756993876745
0.0,-0.9,0.38218071779545615
0.020000000000000018,-0.9,0.3485666474288159
0.040000000000000036,-0.9,0.30945547280860103
0.06000000000000005,-0.9,0.2654640005224557
0.08000000000000007,-0.9,0.21728600236756396
0.10000000000000009,-0.9,0.16568127415496953
0.1200000000000001,-0.9,0.1114636532757555
0.14000000000000012,-0.9,0.0554881839992238
0.15999999999999992,-0.9,-0.0013623670860101024
0.17999999999999994,-0.9,-0.05819143282845901
0.19999999999999996,-0.9,-0.1141027849133261
0.21999999999999997,-0.9,-0.16821466791841025
0.24,-0.9,-0.2196737051238493
0.26,-0.9,-0.2676683567727745
0.28,-0.9,-0.31144171853806724
0.30000000000000004,-0.9,-0.35030345835575005
0.32000000000000006,-0.9,-0.38364070337401984
0.3400000000000001,-0.9,-0.4109277053242337
0.3600000000000001,-0.9,-0.43173413188517196
0.3800000000000001,-0.9,-0.44573185328081183
0.40000000000000013,-0.9,-0.4527001170829105
0.41999999999999993,-0.9,-0.45252902960866986
0.43999999999999995,-0.9,-0.44522128900976166
0.45999999999999996,-0.9,-0.4308921427208632
0.48,-0.9,-0.40976756993876734
0.5,-0.9,-0.38218071779545604
0.52,-0.9,-0.34856664742881577
0.54,-0.9,-0.309455472808601
0.56,-0.9,-0.2654640005224556
0.5800000000000001,-0.9,-0.21728600236756404
0.6000000000000001,-0.9,-0.16568127415496967
0.6200000000000001,-0.9,-0.11146365327575564
0.6400000000000001,-0.9,-0.05548818399922392
0.6600000000000001,-0.9,0.0013623670860100192
0.6799999999999999,-0.9,0.058191432828458955
0.7,-0.9,0.11410278491332602
0.72,-0.9,0.1682146679184102
0.74,-0.9,0.2196737051238492
0.76,-0.9,0.2676683567727744
0.78,-0.9,0.31144171853806724
0.8,-0.9,0.35030345835575005
0.8200000000000001,-0.9,0.3836407033740198
0.8400000000000001,-0.9,0.4109277053242338
0.8600000000000001,-0.9,0.43173413188517207
0.8800000000000001,-0.9,0.44573185328081183
0.9000000000000001,-0.9,0.45270011708291047
0.9199999999999999,-0.9,0.45252902960867
0.94,-0.9,0.4452212890097617
0.96,-0.9,0.43089214272086324
0.98,-0.9,0.4097675699387675
1.0,-0.9,0.38218071779545604

-1.0,-0.88,0.2846816528812485
-0.98,-0.88,0.2570948007379372
-0.96,-0.88,0.22545341000599908
-0.94,-0.88,0.19025648431892733
-0.92,-0.88,0.15205910022043134
-0.9,-0.88,0.11146365327575569
-0.88,-0.88,0.06911035793376229
-0.86,-0.88,0.02566715096262672
-0.84,-0.88,-0.01818084231200224
-0.8200000000000001,-0.88,-0.06174211284266218
-0.8,-0.88,-0.10432967337084285
-0.78,-0.88,-0.1452718926264394
-0.76,-0.88,-0.18392308735409477
-0.74,-0.88,-0.21967370512384926
-0.72,-0.88,-0.2519599373370901
-0.7,-0.88,-0.2802726108249541
-0.6799999999999999,-0.88,-0.30416521781336636
-0.6599999999999999,-0.88,-0.3232609576173679
-0.64,-0.88,-0.33725867901300777
-0.62,-0.88,-0.3459376295720432
-0.6,-0.88,-0.3491609370596043
-0.5800000000000001,-0.88,-0.34687776799110187
-0.56,-0.88,-0.3391241293066455
-0.54,-0.88,-0.3260223005200878
-0.52,-0.88,-0.3077789052980463
-0.5,-0.88,-0.2846816528812486
-0.48,-0.88,-0.2570948007379372
-0.45999999999999996,-0.88,-0.22545341000599908
-0.43999999999999995,-0.88,-0.1902564843189273
-0.42000000000000004,-0.88,-0.1520591002204313
-0.4,-0.88,-0.11146365327575555
-0.38,-0.88,-0.06911035793376219
-0.36,-0.88,-0.02566715096262667
-0.33999999999999997,-0.88,0.018180842312002263
-0.31999999999999995,-0.88,0.061742112842662164
-0.29999999999999993,-0.88,0.10432967337084283
-0.28,-0.88,0.14527189262643936
-0.26,-0.88,0.1839230873540947
-0.24,-0.88,0.21967370512384923
-0.21999999999999997,-0.88,0.25195993733709005
-0.19999999999999996,-0.88,0.280272610824954
-0.17999999999999994,-0.88,0.30416521781336625
-0.16000000000000003,-0.88,0.3232609576173679
-0.14,-0.88,0.33725867901300777
-0.12,-0.88,0.3459376295720432
-0.09999999999999998,-0.88,0.3491609370596043
-0.07999999999999996,-0.88,0.34687776799110187
-0.05999999999999994,-0.88,0.3391241293066454
-0.040000000000000036,-0.88,0.3260223005200878
-0.020000000000000018,-0.88,0.30777890529804636
0.0,-0.88,0.2846816528812486
0.020000000000000018,-0.88,0.2570948007379372
0.040000000000000036,-0.88,0.22545341000599906
0.06000000000000005,-0.88,0.19025648431892725
0.08000000000000007,-0.88,0.1520591002204312
0.10000000000000009,-0.88,0.1114636532757555
0.1200000000000001,-0.88,0.06911035793376216
0.14000000000000012,-0.88,0.025667150962626666
0.15999999999999992,-0.88,-0.018180842312002243
0.17999999999999994,-0.88,-0.061742112842662136
0.19999999999999996,-0.88,-0.1043296733708428
0.21999999999999997,-0.88,-0.1452718926264394
0.24,-0.88,-0.1839230873540948
0.26,-0.88,-0.21967370512384932
0.28,-0.88,-0.2519599373370901
0.30000000000000004,-0.88,-0.280272610824954
0.32000000000000006,-0.88,-0.30416521781336625
0.3400000000000001,-0.88,-0.3232609576173679
0.3600000000000001,-0.88,-0.3372586790130077
0.3800000000000001,-0.88,-0.3459376295720431
0.40000000000000013,-0.88,-0.3491609370596043
0.41999999999999993,-0.88,-0.3468777679911019
0.43999999999999995,-0.88,-0.3391241293066454
0.45999999999999996,-0.88,-0.3260223005200878
0.48,-0.88,-0.30777890529804625
0.5,-0.88,-0.28468165288124847
0.52,-0.88,-0.25709480073793717
0.54,-0.88,-0.22545341000599894
0.56,-0.88,-0.19025648431892728
0.5800000000000001,-0.88,-0.1520591002204313
0.6000000000000001,-0.88,-0.11146365327575562
0.6200000000000001,-0.88,-0.06911035793376229
0.6400000000000001,-0.88,-0.02566715096262676
0.6600000000000001,-0.88,0.01818084231200219
0.6799999999999999,-0.88,0.06174211284266208
0.7,-0.88,0.10432967337084276
0.72,-0.88,0.14527189262643933
0.74,-0.88,0.1839230873540947
0.76,-0.88,0.21967370512384926
0.78,-0.88,0.2519599373370901
0.8,-0.88,0.2802726108249541
0.8200000000000001,-0.88,0.3041652178133663
0.8400000000000001,-0.88,0.32326095761736784
0.8600000000000001,-0.88,0.3372586790130077
0.8800000000000001,-0.88,0.3459376295720431
0.9000000000000001,-0.88,0.3491609370596043
0.9199999999999999,-0.88,0.3468777679911019
0.94,-0.88,0.3391241293066454
0.96,-0.88,0.3260223005200879
0.98,-0.88,0.3077789052980463
1.0,-0.88,0.2846816528812485

-1.0,-0.86,0.18269298824052735
-0.98,-0.86,0.16156841545843162
-0.96,-0.86,0.1378958122482633
-0.94,-0.86,0.11204850970397454
-0.92,-0.86,0.08443413522711886
-0.9,-0.86,0.05548818399922391
-0.88,-0.86,0.025667150962626725
-0.86,-0.86,-0.004558668377463873
-0.84,-0.86,-0.03471259479402541
-0.8200000000000001,-0.86,-0.06431908285438612
-0.8,-0.86,-0.09291122055577544
-0.78,-0.86,-0.12003809280652734
-0.76,-0.86,-0.1452718926264394
-0.74,-0.86,-0.1682146679184103
-0.72,-0.86,-0.1885045974107361
-0.7,-0.86,-0.2058216967947064
-0.6799999999999999,-0.86,-0.21989286506830205
-0.6599999999999999,-0.86,-0.23049619150214018
-0.64,-0.86,-0.23746445530423896
-0.62,-0.86,-0.24068776279180015
-0.6,-0.86,-0.2401152804802344
-0.5800000000000001,-0.86,-0.23575603675757967
-0.56,-0.86,-0.2276787795014279
-0.54,-0.86,-0.21601089188382833
-0.52,-0.86,-0.20093638346256884
-0.5,-0.86,-0.18269298824052738
-0.48,-0.86,-0.1615684154584316
-0.45999999999999996,-0.86,-0.13789581224826333
-0.43999999999999995,-0.86,-0.11204850970397456
-0.42000000000000004,-0.86,-0.08443413522711876
-0.4,-0.86,-0.055488183999223825
-0.38,-0.86,-0.025667150962626666
-0.36,-0.86,0.004558668377463913
-0.33999999999999997,-0.86,0.034712594794025414
-0.31999999999999995,-0.86,0.0643190828543861
-0.29999999999999993,-0.86,0.09291122055577543
-0.28,-0.86,0.12003809280652729
-0.26,-0.86,0.14527189262643936
-0.24,-0.86,0.16821466791841025
-0.21999999999999997,-0.86,0.18850459741073602
-0.19999999999999996,-0.86,0.20582169679470624
-0.17999999999999994,-0.86,0.21989286506830205
-0.16000000000000003,-0.86,0.23049619150214018
-0.14,-0.86,0.23746445530423893
-0.12,-0.86,0.24068776279180015
-0.09999999999999998,-0.86,0.24011528048023445
-0.07999999999999996,-0.86,0.23575603675757967
-0.05999999999999994,-0.86,0.2276787795014279
-0.040000000000000036,-0.86,0.21601089188382838
-0.020000000000000018,-0.86,0.20093638346256887
0.0,-0.86,0.1826929882405274
0.020000000000000018,-0.86,0.16156841545843162
0.040000000000000036,-0.86,0.1378958122482633
0.06000000000000005,-0.86,0.11204850970397445
0.08000000000000007,-0.86,0.08443413522711873
0.10000000000000009,-0.86,0.05548818399922377
0.1200000000000001,-0.86,0.02566715096262664
0.14000000000000012,-0.86,-0.004558668377463911
0.15999999999999992,-0.86,-0.034712594794025387
0.17999999999999994,-0.86,-0.06431908285438606
0.19999999999999996,-0.86,-0.09291122055577539
0.21999999999999997,-0.86,-0.12003809280652732
0.24,-0.86,-0.1452718926264394
0.26,-0.86,-0.16821466791841033
0.28,-0.86,-0.18850459741073608
0.30000000000000004,-0.86,-0.2058216967947063
0.32000000000000006,-0.86,-0.21989286506830202
0.3400000000000001,-0.86,-0.23049619150214012
0.3600000000000001,-0.86,-0.2374644553042389