TITLE = "Solution" 
VARIABLES = "x", "y", "sol" 
ZONE STRANDID=1, SOLUTIONTIME= 0.36000000000000015, I= 101, J =101, DATAPACKING=POINT 
-1.0,-1.0,0.4696993358498119
-0.98,-1.0,0.5275522350056536
-0.96,-1.0,0.5770853202710263
-0.94,-1.0,0.6175174253016645
-0.92,-1.0,0.6482109116482662
-0.9,-1.0,0.6686817246957453
-0.88,-1.0,0.678607027493672
-0.86,-1.0,0.6778302920878346
-0.84,-1.0,0.666363768059583
-0.8200000000000001,-1.0,0.6443882893426122
-0.8,-1.0,0.6122504223638028
-0.78,-1.0,0.570457000483642
-0.76,-1.0,0.5196671309313602
-0.74,-1.0,0.4606818002901942
-0.72,-1.0,0.39443124246048356
-0.7,-1.0,0.3219602683153681
-0.6799999999999999,-1.0,0.2444117884091772
-0.6599999999999999,-1.0,0.1630087885952484
-0.64,-1.0,0.07903504280844212
-0.62,-1.0,-0.0061851328166993465
-0.6,-1.0,-0.09130776520250215
-0.5800000000000001,-1.0,-0.17499041958644654
-0.56,-1.0,-0.2559133705193029
-0.54,-1.0,-0.3328004147238325
-0.52,-1.0,-0.4044389975828359
-0.5,-1.0,-0.4696993358498118
-0.48,-1.0,-0.5275522350056537
-0.45999999999999996,-1.0,-0.5770853202710262
-0.43999999999999995,-1.0,-0.6175174253016645
-0.42000000000000004,-1.0,-0.6482109116482662
-0.4,-1.0,-0.6686817246957452
-0.38,-1.0,-0.678607027493672
-0.36,-1.0,-0.6778302920878347
-0.33999999999999997,-1.0,-0.6663637680595833
-0.31999999999999995,-1.0,-0.6443882893426123
-0.29999999999999993,-1.0,-0.6122504223638029
-0.28,-1.0,-0.570457000483642
-0.26,-1.0,-0.5196671309313602
-0.24,-1.0,-0.4606818002901943
-0.21999999999999997,-1.0,-0.3944312424604835
-0.19999999999999996,-1.0,-0.321960268315368
-0.17999999999999994,-1.0,-0.24441178840917713
-0.16000000000000003,-1.0,-0.16300878859524826
-0.14,-1.0,-0.07903504280844204
-0.12,-1.0,0.006185132816699333
-0.09999999999999998,-1.0,0.09130776520250214
-0.07999999999999996,-1.0,0.17499041958644648
-0.05999999999999994,-1.0,0.25591337051930285
-0.040000000000000036,-1.0,0.3328004147238324
-0.020000000000000018,-1.0,0.4044389975828357
0.0,-1.0,0.46969933584981177
0.020000000000000018,-1.0,0.5275522350056535
0.040000000000000036,-1.0,0.5770853202710262
0.06000000000000005,-1.0,0.6175174253016643
0.08000000000000007,-1.0,0.6482109116482659
0.10000000000000009,-1.0,0.6686817246957449
0.1200000000000001,-1.0,0.6786070274936719
0.14000000000000012,-1.0,0.6778302920878345
0.15999999999999992,-1.0,0.6663637680595832
0.17999999999999994,-1.0,0.6443882893426122
0.19999999999999996,-1.0,0.6122504223638026
0.21999999999999997,-1.0,0.570457000483642
0.24,-1.0,0.5196671309313603
0.26,-1.0,0.46068180029019423
0.28,-1.0,0.39443124246048344
0.30000000000000004,-1.0,0.32196026831536795
0.32000000000000006,-1.0,0.244411788409177
0.3400000000000001,-1.0,0.16300878859524817
0.3600000000000001,-1.0,0.079035042808442
0.3800000000000001,-1.0,-0.006185132816699326
0.40000000000000013,-1.0,-0.09130776520250213
0.41999999999999993,-1.0,-0.17499041958644648
0.43999999999999995,-1.0,-0.25591337051930296
0.45999999999999996,-1.0,-0.3328004147238325
0.48,-1.0,-0.4044389975828359
0.5,-1.0,-0.4696993358498117
0.52,-1.0,-0.5275522350056535
0.54,-1.0,-0.5770853202710263
0.56,-1.0,-0.6175174253016645
0.5800000000000001,-1.0,-0.6482109116482658
0.6000000000000001,-1.0,-0.6686817246957449
0.6200000000000001,-1.0,-0.6786070274936719
0.6400000000000001,-1.0,-0.6778302920878346
0.6600000000000001,-1.0,-0.6663637680595832
0.6799999999999999,-1.0,-0.6443882893426122
0.7,-1.0,-0.6122504223638027
0.72,-1.0,-0.570457000483642
0.74,-1.0,-0.5196671309313601
0.76,-1.0,-0.4606818002901941
0.78,-1.0,-0.3944312424604835
0.8,-1.0,-0.32196026831536795
0.8200000000000001,-1.0,-0.24441178840917713
0.8400000000000001,-1.0,-0.16300878859524837
0.8600000000000001,-1.0,-0.07903504280844217
0.8800000000000001,-1.0,0.006185132816699249
0.9000000000000001,-1.0,0.09130776520250203
0.9199999999999999,-1.0,0.17499041958644643
0.94,-1.0,0.2559133705193029
0.96,-1.0,0.3328004147238324
0.98,-1.0,0.4044389975828358
1.0,-1.0,0.4696993358498119

-1.0,-0.98,0.5275522350056536
-0.98,-0.98,0.5888983243394864
-0.96,-0.98,0.6409571353076783
-0.94,-0.98,0.682907669362835
-0.92,-0.98,0.7140883415228718
-0.9,-0.98,0.7340074139613946
-0.88,-0.98,0.7423507510069706
-0.86,-0.98,0.7389867732503231
-0.84,-0.98,0.7239685326302182
-0.8200000000000001,-0.98,0.6975328757726962
-0.8,-0.98,0.6600967087782964
-0.78,-0.98,0.6122504223638027
-0.76,-0.98,0.5547485810479574
-0.74,-0.98,0.4884980232182469
-0.72,-0.98,0.41454355974781054
-0.7,-0.98,0.33405149670383155
-0.6799999999999999,-0.98,0.24829124200414182
-0.6599999999999999,-0.98,0.15861528609604808
-0.64,-0.98,0.06643787237404056
-0.62,-0.98,-0.0267873062833667
-0.6,-0.98,-0.1195900331187242
-0.5800000000000001,-0.98,-0.21050675369217642
-0.56,-0.98,-0.2981036570092638
-0.54,-0.98,-0.3809992875768221
-0.52,-0.98,-0.4578863317813518
-0.5,-0.98,-0.5275522350056538
-0.48,-0.98,-0.5888983243394863
-0.45999999999999996,-0.98,-0.6409571353076784
-0.43999999999999995,-0.98,-0.682907669362835
-0.42000000000000004,-0.98,-0.7140883415228718
-0.4,-0.98,-0.7340074139613945
-0.38,-0.98,-0.7423507510069706
-0.36,-0.98,-0.7389867732503235
-0.33999999999999997,-0.98,-0.7239685326302183
-0.31999999999999995,-0.98,-0.6975328757726964
-0.29999999999999993,-0.98,-0.6600967087782963
-0.28,-0.98,-0.6122504223638027
-0.26,-0.98,-0.5547485810479578
-0.24,-0.98,-0.4884980232182469
-0.21999999999999997,-0.98,-0.41454355974781043
-0.19999999999999996,-0.98,-0.3340514967038315
-0.17999999999999994,-0.98,-0.24829124200414168
-0.16000000000000003,-0.98,-0.1586152860960479
-0.14,-0.98,-0.06643787237404056
-0.12,-0.98,0.026787306283366705
-0.09999999999999998,-0.98,0.11959003311872417
-0.07999999999999996,-0.98,0.21050675369217642
-0.05999999999999994,-0.98,0.2981036570092638
-0.040000000000000036,-0.98,0.38099928757682194
-0.020000000000000018,-0.98,0.4578863317813518
0.0,-0.98,0.5275522350056534
0.020000000000000018,-0.98,0.5888983243394863
0.040000000000000036,-0.98,0.6409571353076782
0.06000000000000005,-0.98,0.6829076693628349
0.08000000000000007,-0.98,0.7140883415228716
0.10000000000000009,-0.98,0.7340074139613945
0.1200000000000001,-0.98,0.7423507510069706
0.14000000000000012,-0.98,0.7389867732503232
0.15999999999999992,-0.98,0.7239685326302182
0.17999999999999994,-0.98,0.697532875772696
0.19999999999999996,-0.98,0.6600967087782963
0.21999999999999997,-0.98,0.6122504223638028
0.24,-0.98,0.5547485810479577
0.26,-0.98,0.48849802321824676
0.28,-0.98,0.41454355974781043
0.30000000000000004,-0.98,0.33405149670383133
0.32000000000000006,-0.98,0.24829124200414157
0.3400000000000001,-0.98,0.15861528609604789
0.3600000000000001,-0.98,0.06643787237404054
0.3800000000000001,-0.98,-0.026787306283366712
0.40000000000000013,-0.98,-0.11959003311872418
0.41999999999999993,-0.98,-0.21050675369217642
0.43999999999999995,-0.98,-0.2981036570092637
0.45999999999999996,-0.98,-0.3809992875768221
0.48,-0.98,-0.4578863317813518
0.5,-0.98,-0.5275522350056535
0.52,-0.98,-0.5888983243394865
0.54,-0.98,-0.6409571353076784
0.56,-0.98,-0.6829076693628346
0.5800000000000001,-0.98,-0.7140883415228715
0.6000000000000001,-0.98,-0.7340074139613945
0.6200000000000001,-0.98,-0.7423507510069703
0.6400000000000001,-0.98,-0.7389867732503232
0.6600000000000001,-0.98,-0.7239685326302183
0.6799999999999999,-0.98,-0.6975328757726962
0.7,-0.98,-0.6600967087782962
0.72,-0.98,-0.6122504223638026
0.74,-0.98,-0.5547485810479573
0.76,-0.98,-0.4884980232182468
0.78,-0.98,-0.41454355974781043
0.8,-0.98,-0.33405149670383144
0.8200000000000001,-0.98,-0.24829124200414177
0.8400000000000001,-0.98,-0.15861528609604808
0.8600000000000001,-0.98,-0.06643787237404064
0.8800000000000001,-0.98,0.02678730628336661
0.9000000000000001,-0.98,0.11959003311872406
0.9199999999999999,-0.98,0.21050675369217642
0.94,-0.98,0.2981036570092637
0.96,-0.98,0.38099928757682205
0.98,-0.98,0.4578863317813518
1.0,-0.98,0.5275522350056536

-1.0,-0.96,0.5770853202710263
-0.98,-0.96,0.6409571353076783
-0.96,-0.96,0.694720673431295
-0.94,-0.96,0.7375280515288856
-0.92,-0.96,0.7687041716759634
-0.9,-0.96,0.7877573678340973
-0.88,-0.96,0.7943871597180457
-0.86,-0.96,0.7884889915493537
-0.84,-0.96,0.7701558809634362
-0.8200000000000001,-0.96,0.7396769520659023
-0.8,-0.96,0.697532875772696
-0.78,-0.96,0.6443882893426117
-0.76,-0.96,0.5810813146506894
-0.74,-0.96,0.5086103405055739
-0.72,-0.96,0.4281182774615949
-0.7,-0.96,0.34087453343658425
-0.6799999999999999,-0.96,0.2482549943907024
-0.6599999999999999,-0.96,0.15172032578293398
-0.64,-0.96,0.052792937004239274
-0.62,-0.96,-0.04696702792798423
-0.6,-0.96,-0.14598629477304093
-0.5800000000000001,-0.96,-0.24270327054154145
-0.56,-0.96,-0.33559267074969573
-0.54,-0.96,-0.4231895740667831
-0.52,-0.96,-0.5041125249996399
-0.5,-0.96,-0.5770853202710264
-0.48,-0.96,-0.6409571353076783
-0.45999999999999996,-0.96,-0.694720673431295
-0.43999999999999995,-0.96,-0.7375280515288858
-0.42000000000000004,-0.96,-0.7687041716759634
-0.4,-0.96,-0.7877573678340973
-0.38,-0.96,-0.7943871597180461
-0.36,-0.96,-0.7884889915493538
-0.33999999999999997,-0.96,-0.7701558809634365
-0.31999999999999995,-0.96,-0.7396769520659022
-0.29999999999999993,-0.96,-0.697532875772696
-0.28,-0.96,-0.644388289342612
-0.26,-0.96,-0.5810813146506894
-0.24,-0.96,-0.5086103405055739
-0.21999999999999997,-0.96,-0.42811827746159486
-0.19999999999999996,-0.96,-0.3408745334365841
-0.17999999999999994,-0.96,-0.24825499439070214
-0.16000000000000003,-0.96,-0.15172032578293396
-0.14,-0.96,-0.05279293700423923
-0.12,-0.96,0.04696702792798424
-0.09999999999999998,-0.96,0.14598629477304093
-0.07999999999999996,-0.96,0.24270327054154142
-0.05999999999999994,-0.96,0.3355926707496955
-0.040000000000000036,-0.96,0.423189574066783
-0.020000000000000018,-0.96,0.5041125249996395
0.0,-0.96,0.5770853202710262
0.020000000000000018,-0.96,0.6409571353076783
0.040000000000000036,-0.96,0.6947206734312948
0.06000000000000005,-0.96,0.7375280515288855
0.08000000000000007,-0.96,0.7687041716759635
0.10000000000000009,-0.96,0.7877573678340973
0.1200000000000001,-0.96,0.7943871597180459
0.14000000000000012,-0.96,0.7884889915493539
0.15999999999999992,-0.96,0.770155880963436
0.17999999999999994,-0.96,0.7396769520659023
0.19999999999999996,-0.96,0.697532875772696
0.21999999999999997,-0.96,0.6443882893426118
0.24,-0.96,0.5810813146506891
0.26,-0.96,0.5086103405055739
0.28,-0.96,0.4281182774615947
0.30000000000000004,-0.96,0.340874533436584
0.32000000000000006,-0.96,0.2482549943907021
0.3400000000000001,-0.96,0.15172032578293387
0.3600000000000001,-0.96,0.05279293700423919
0.3800000000000001,-0.96,-0.046967027927984246
0.40000000000000013,-0.96,-0.14598629477304093
0.41999999999999993,-0.96,-0.2427032705415414
0.43999999999999995,-0.96,-0.3355926707496957
0.45999999999999996,-0.96,-0.42318957406678304
0.48,-0.96,-0.5041125249996397
0.5,-0.96,-0.5770853202710264
0.52,-0.96,-0.6409571353076785
0.54,-0.96,-0.6947206734312948
0.56,-0.96,-0.7375280515288853
0.5800000000000001,-0.96,-0.7687041716759634
0.6000000000000001,-0.96,-0.7877573678340971
0.6200000000000001,-0.96,-0.7943871597180459
0.6400000000000001,-0.96,-0.7884889915493538
0.6600000000000001,-0.96,-0.7701558809634361
0.6799999999999999,-0.96,-0.7396769520659021
0.7,-0.96,-0.6975328757726958
0.72,-0.96,-0.6443882893426117
0.74,-0.96,-0.5810813146506891
0.76,-0.96,-0.5086103405055737
0.78,-0.96,-0.42811827746159475
0.8,-0.96,-0.34087453343658414
0.8200000000000001,-0.96,-0.24825499439070234
0.8400000000000001,-0.96,-0.15172032578293398
0.8600000000000001,-0.96,-0.05279293700423933
0.8800000000000001,-0.96,0.04696702792798412
0.9000000000000001,-0.96,0.14598629477304087
0.9199999999999999,-0.96,0.2427032705415413
0.94,-0.96,0.3355926707496955
0.96,-0.96,0.42318957406678304
0.98,-0.96,0.5041125249996397
1.0,-0.96,0.5770853202710263

-1.0,-0.94,0.6175174253016645
-0.98,-0.94,0.6829076693628349
-0.96,-0.94,0.7375280515288856
-0.94,-0.94,0.7805171757444234
-0.92,-0.94,0.8111970778401114
-0.9,-0.94,0.8290839174326147
-0.88,-0.94,0.8338956083764805
-0.86,-0.94,0.8255562674311585
-0.84,-0.94,0.8041974109850377
-0.8200000000000001,-0.94,0.7701558809634358
-0.8,-0.94,0.7239685326302177
-0.78,-0.94,0.6663637680595825
-0.76,-0.94,0.598250048800228
-0.74,-0.94,0.5207015688940372
-0.72,-0.94,0.4349413141943475
-0.7,-0.94,0.34232177514846573
-0.6799999999999999,-0.94,0.2443036172153764
-0.6599999999999999,-0.94,0.14243264529889366
-0.64,-0.94,0.038315425480909236
-0.62,-0.94,-0.06640605148543488
-0.6,-0.94,-0.17008026535080142
-0.5800000000000001,-0.94,-0.2710722118305602
-0.56,-0.94,-0.3677891875990607
-0.54,-0.94,-0.45870590817251317
-0.52,-0.94,-0.5423885625564575
-0.5,-0.94,-0.6175174253016645
-0.48,-0.94,-0.6829076693628349
-0.45999999999999996,-0.94,-0.7375280515288858
-0.43999999999999995,-0.94,-0.7805171757444234
-0.42000000000000004,-0.94,-0.8111970778401113
-0.4,-0.94,-0.829083917432615
-0.38,-0.94,-0.8338956083764806
-0.36,-0.94,-0.8255562674311587
-0.33999999999999997,-0.94,-0.8041974109850375
-0.31999999999999995,-0.94,-0.7701558809634358
-0.29999999999999993,-0.94,-0.7239685326302179
-0.28,-0.94,-0.6663637680595826
-0.26,-0.94,-0.598250048800228
-0.24,-0.94,-0.5207015688940372
-0.21999999999999997,-0.94,-0.43494131419434734
-0.19999999999999996,-0.94,-0.34232177514846546
-0.17999999999999994,-0.94,-0.24430361721537633
-0.16000000000000003,-0.94,-0.14243264529889355
-0.14,-0.94,-0.038315425480909195
-0.12,-0.94,0.06640605148543492
-0.09999999999999998,-0.94,0.1700802653508014
-0.07999999999999996,-0.94,0.27107221183056
-0.05999999999999994,-0.94,0.3677891875990606
-0.040000000000000036,-0.94,0.4587059081725129
-0.020000000000000018,-0.94,0.5423885625564574
0.0,-0.94,0.6175174253016645
0.020000000000000018,-0.94,0.6829076693628349
0.040000000000000036,-0.94,0.7375280515288855
0.06000000000000005,-0.94,0.7805171757444234
0.08000000000000007,-0.94,0.8111970778401113
0.10000000000000009,-0.94,0.8290839174326148
0.1200000000000001,-0.94,0.8338956083764807
0.14000000000000012,-0.94,0.8255562674311584
0.15999999999999992,-0.94,0.8041974109850377
0.17999999999999994,-0.94,0.7701558809634358
0.19999999999999996,-0.94,0.7239685326302177
0.21999999999999997,-0.94,0.6663637680595824
0.24,-0.94,0.5982500488002279
0.26,-0.94,0.520701568894037
0.28,-0.94,0.4349413141943473
0.30000000000000004,-0.94,0.3423217751484653
0.32000000000000006,-0.94,0.24430361721537625
0.3400000000000001,-0.94,0.14243264529889346
0.3600000000000001,-0.94,0.03831542548090917
0.3800000000000001,-0.94,-0.06640605148543492
0.40000000000000013,-0.94,-0.17008026535080142
0.41999999999999993,-0.94,-0.27107221183056013
0.43999999999999995,-0.94,-0.3677891875990607
0.45999999999999996,-0.94,-0.458705908172513
0.48,-0.94,-0.5423885625564575
0.5,-0.94,-0.6175174253016646
0.52,-0.94,-0.6829076693628349
0.54,-0.94,-0.7375280515288855
0.56,-0.94,-0.7805171757444234
0.5800000000000001,-0.94,-0.8111970778401111
0.6000000000000001,-0.94,-0.8290839174326149
0.6200000000000001,-0.94,-0.8338956083764806
0.6400000000000001,-0.94,-0.8255562674311585
0.6600000000000001,-0.94,-0.8041974109850376
0.6799999999999999,-0.94,-0.7701558809634357
0.7,-0.94,-0.7239685326302175
0.72,-0.94,-0.6663637680595823
0.74,-0.94,-0.5982500488002279
0.76,-0.94,-0.5207015688940371
0.78,-0.94,-0.43494131419434745
0.8,-0.94,-0.34232177514846557
0.8200000000000001,-0.94,-0.2443036172153763
0.8400000000000001,-0.94,-0.14243264529889363
0.8600000000000001,-0.94,-0.038315425480909306
0.8800000000000001,-0.94,0.06640605148543481
0.9000000000000001,-0.94,0.1700802653508013
0.9199999999999999,-0.94,0.27107221183055996
0.94,-0.94,0.3677891875990606
0.96,-0.94,0.45870590817251294
0.98,-0.94,0.5423885625564574
1.0,-0.94,0.6175174253016645

-1.0,-0.92,0.6482109116482662
-0.98,-0.92,0.7140883415228718
-0.96,-0.92,0.7687041716759634
-0.94,-0.92,0.8111970778401114
-0.92,-0.92,0.8408969215010748
-0.9,-0.92,0.8573353183824947
-0.88,-0.92,0.8602530251457273
-0.86,-0.92,0.849604027812164
-0.84,-0.92,0.8255562674311578
-0.8200000000000001,-0.92,0.7884889915493529
-0.8,-0.92,0.7389867732503221
-0.78,-0.92,0.6778302920878336
-0.76,-0.92,0.6059840223029301
-0.74,-0.92,0.5245810224890014
-0.72,-0.92,0.43490506658090794
-0.7,-0.92,0.33837039797313967
-0.6799999999999999,-0.92,0.23649942605665702
-0.6599999999999999,-0.92,0.1308987169133517
-0.64,-0.92,0.023233656809219558
-0.62,-0.92,-0.08479781194190789
-0.6,-0.92,-0.19149196854295408
-0.5800000000000001,-0.92,-0.29516618240832065
-0.56,-0.92,-0.3941854492533775
-0.54,-0.92,-0.486988176088735
-0.52,-0.92,-0.572110808474538
-0.5,-0.92,-0.648210911648266
-0.48,-0.92,-0.7140883415228718
-0.45999999999999996,-0.92,-0.7687041716759634
-0.43999999999999995,-0.92,-0.8111970778401112
-0.42000000000000004,-0.92,-0.840896921501075
-0.4,-0.92,-0.8573353183824947
-0.38,-0.92,-0.8602530251457275
-0.36,-0.92,-0.8496040278121639
-0.33999999999999997,-0.92,-0.825556267431158
-0.31999999999999995,-0.92,-0.788488991549353
-0.29999999999999993,-0.92,-0.7389867732503221
-0.28,-0.92,-0.6778302920878337
-0.26,-0.92,-0.6059840223029302
-0.24,-0.92,-0.5245810224890013
-0.21999999999999997,-0.92,-0.4349050665809077
-0.19999999999999996,-0.92,-0.3383703979731396
-0.17999999999999994,-0.92,-0.23649942605665691
-0.16000000000000003,-0.92,-0.13089871691335164
-0.14,-0.92,-0.02323365680921949
-0.12,-0.92,0.08479781194190791
-0.09999999999999998,-0.92,0.19149196854295403
-0.07999999999999996,-0.92,0.2951661824083206
-0.05999999999999994,-0.92,0.39418544925337734
-0.040000000000000036,-0.92,0.48698817608873485
-0.020000000000000018,-0.92,0.5721108084745379
0.0,-0.92,0.648210911648266
0.020000000000000018,-0.92,0.7140883415228718
0.040000000000000036,-0.92,0.7687041716759633
0.06000000000000005,-0.92,0.8111970778401114
0.08000000000000007,-0.92,0.840896921501075
0.10000000000000009,-0.92,0.8573353183824948
0.1200000000000001,-0.92,0.8602530251457272
0.14000000000000012,-0.92,0.849604027812164
0.15999999999999992,-0.92,0.8255562674311578
0.17999999999999994,-0.92,0.7884889915493529
0.19999999999999996,-0.92,0.7389867732503221
0.21999999999999997,-0.92,0.6778302920878335
0.24,-0.92,0.60598402230293
0.26,-0.92,0.5245810224890013
0.28,-0.92,0.43490506658090755
0.30000000000000004,-0.92,0.3383703979731395
0.32000000000000006,-0.92,0.23649942605665678
0.3400000000000001,-0.92,0.1308987169133516
0.3600000000000001,-0.92,0.023233656809219454
0.3800000000000001,-0.92,-0.08479781194190794
0.40000000000000013,-0.92,-0.19149196854295406
0.41999999999999993,-0.92,-0.2951661824083207
0.43999999999999995,-0.92,-0.39418544925337745
0.45999999999999996,-0.92,-0.4869881760887349
0.48,-0.92,-0.572110808474538
0.5,-0.92,-0.6482109116482662
0.52,-0.92,-0.7140883415228717
0.54,-0.92,-0.7687041716759633
0.56,-0.92,-0.8111970778401112
0.5800000000000001,-0.92,-0.840896921501075
0.6000000000000001,-0.92,-0.8573353183824945
0.6200000000000001,-0.92,-0.8602530251457273
0.6400000000000001,-0.92,-0.8496040278121639
0.6600000000000001,-0.92,-0.825556267431158
0.6799999999999999,-0.92,-0.7884889915493528
0.7,-0.92,-0.7389867732503219
0.72,-0.92,-0.6778302920878334
0.74,-0.92,-0.60598402230293
0.76,-0.92,-0.5245810224890014
0.78,-0.92,-0.4349050665809079
0.8,-0.92,-0.33837039797313956
0.8200000000000001,-0.92,-0.23649942605665694
0.8400000000000001,-0.92,-0.13089871691335173
0.8600000000000001,-0.92,-0.023233656809219606
0.8800000000000001,-0.92,0.08479781194190782
0.9000000000000001,-0.92,0.19149196854295386
0.9199999999999999,-0.92,0.29516618240832054
0.94,-0.92,0.3941854492533773
0.96,-0.92,0.4869881760887348
0.98,-0.92,0.5721108084745379
1.0,-0.92,0.6482109116482662

-1.0,-0.9,0.6686817246957453
-0.98,-0.9,0.7340074139613946
-0.96,-0.9,0.7877573678340974
-0.94,-0.9,0.8290839174326146
-0.92,-0.9,0.8573353183824947
-0.9,-0.9,0.8720660292141876
-0.88,-0.9,0.8730437378181777
-0.86,-0.9,0.8602530251457263
-0.84,-0.9,0.8338956083764789
-0.8200000000000001,-0.9,0.7943871597180441
-0.8,-0.9,0.7423507510069687
-0.78,-0.9,0.6786070274936696
-0.76,-0.9,0.604161265776607
-0.74,-0.9,0.520187519989801
-0.72,-0.9,0.4280101062677938
-0.7,-0.9,0.32908271748909934
-0.6799999999999999,-0.9,0.2249654976711151
-0.6599999999999999,-0.9,0.11730043756698304
-0.64,-0.9,0.007785479490534672
-0.62,-0.9,-0.1018522602482996
-0.6,-0.9,-0.20988372899942712
-0.5800000000000001,-0.9,-0.3146052059657714
-0.56,-0.9,-0.4143651708979949
-0.54,-0.9,-0.5075903495554023
-0.52,-0.9,-0.5928105251805437
-0.5,-0.9,-0.668681724695745
-0.48,-0.9,-0.7340074139613946
-0.45999999999999996,-0.9,-0.7877573678340973
-0.43999999999999995,-0.9,-0.8290839174326149
-0.42000000000000004,-0.9,-0.8573353183824947
-0.4,-0.9,-0.8720660292141875
-0.38,-0.9,-0.8730437378181777
-0.36,-0.9,-0.8602530251457262
-0.33999999999999997,-0.9,-0.833895608376479
-0.31999999999999995,-0.9,-0.794387159718044
-0.29999999999999993,-0.9,-0.7423507510069687
-0.28,-0.9,-0.6786070274936696
-0.26,-0.9,-0.6041612657766069
-0.24,-0.9,-0.5201875199898008
-0.21999999999999997,-0.9,-0.42801010626779373
-0.19999999999999996,-0.9,-0.3290827174890992
-0.17999999999999994,-0.9,-0.22496549767111498
-0.16000000000000003,-0.9,-0.11730043756698294
-0.14,-0.9,-0.007785479490534606
-0.12,-0.9,0.1018522602482996
-0.09999999999999998,-0.9,0.209883728999427
-0.07999999999999996,-0.9,0.3146052059657713
-0.05999999999999994,-0.9,0.4143651708979948
-0.040000000000000036,-0.9,0.5075903495554023
-0.020000000000000018,-0.9,0.5928105251805436
0.0,-0.9,0.6686817246957452
0.020000000000000018,-0.9,0.7340074139613945
0.040000000000000036,-0.9,0.7877573678340976
0.06000000000000005,-0.9,0.8290839174326149
0.08000000000000007,-0.9,0.8573353183824947
0.10000000000000009,-0.9,0.8720660292141873
0.1200000000000001,-0.9,0.8730437378181777
0.14000000000000012,-0.9,0.8602530251457263
0.15999999999999992,-0.9,0.8338956083764791
0.17999999999999994,-0.9,0.7943871597180439
0.19999999999999996,-0.9,0.7423507510069685
0.21999999999999997,-0.9,0.6786070274936695
0.24,-0.9,0.6041612657766069
0.26,-0.9,0.5201875199898006
0.28,-0.9,0.4280101062677937
0.30000000000000004,-0.9,0.32908271748909906
0.32000000000000006,-0.9,0.22496549767111496
0.3400000000000001,-0.9,0.11730043756698287
0.3600000000000001,-0.9,0.007785479490534547
0.3800000000000001,-0.9,-0.10185226024829959
0.40000000000000013,-0.9,-0.2098837289994271
0.41999999999999993,-0.9,-0.31460520596577135
0.43999999999999995,-0.9,-0.41436517089799485
0.45999999999999996,-0.9,-0.5075903495554023
0.48,-0.9,-0.5928105251805438
0.5,-0.9,-0.6686817246957449
0.52,-0.9,-0.7340074139613945
0.54,-0.9,-0.7877573678340973
0.56,-0.9,-0.8290839174326148
0.5800000000000001,-0.9,-0.8573353183824947
0.6000000000000001,-0.9,-0.8720660292141874
0.6200000000000001,-0.9,-0.8730437378181776
0.6400000000000001,-0.9,-0.8602530251457264
0.6600000000000001,-0.9,-0.833895608376479
0.6799999999999999,-0.9,-0.7943871597180439
0.7,-0.9,-0.7423507510069683
0.72,-0.9,-0.6786070274936694
0.74,-0.9,-0.6041612657766069
0.76,-0.9,-0.520187519989801
0.78,-0.9,-0.42801010626779373
0.8,-0.9,-0.3290827174890992
0.8200000000000001,-0.9,-0.22496549767111507
0.8400000000000001,-0.9,-0.11730043756698302
0.8600000000000001,-0.9,-0.007785479490534692
0.8800000000000001,-0.9,0.10185226024829941
0.9000000000000001,-0.9,0.209883728999427
0.9199999999999999,-0.9,0.3146052059657712
0.94,-0.9,0.4143651708979947
0.96,-0.9,0.5075903495554022
0.98,-0.9,0.5928105251805437
1.0,-0.9,0.6686817246957453

-1.0,-0.88,0.6786070274936721
-0.98,-0.88,0.7423507510069707
-0.96,-0.88,0.7943871597180456
-0.94,-0.88,0.8338956083764807
-0.92,-0.88,0.8602530251457277
-0.9,-0.88,0.8730437378181777
-0.88,-0.88,0.8720660292141861
-0.86,-0.88,0.8573353183824924
-0.84,-0.88,0.8290839174326123
-0.8200000000000001,-0.88,0.7877573678340947
-0.8,-0.88,0.7340074139613917
-0.78,-0.88,0.668681724695742
-0.76,-0.88,0.5928105251805404
-0.74,-0.88,0.5075903495553994
-0.72,-0.88,0.4143651708979926
-0.7,-0.88,0.31460520596576935
-0.6799999999999999,-0.88,0.2098837289994255
-0.6599999999999999,-0.88,0.10185226024829817
-0.64,-0.88,-0.007785479490536052
-0.62,-0.88,-0.11730043756698451
-0.6,-0.88,-0.22496549767111684
-0.5800000000000001,-0.88,-0.3290827174891013
-0.56,-0.88,-0.428010106267796
-0.54,-0.88,-0.5201875199898034
-0.52,-0.88,-0.6041612657766093
-0.5,-0.88,-0.678607027493672
-0.48,-0.88,-0.7423507510069707
-0.45999999999999996,-0.88,-0.7943871597180459
-0.43999999999999995,-0.88,-0.8338956083764806
-0.42000000000000004,-0.88,-0.8602530251457274
-0.4,-0.88,-0.8730437378181777
-0.38,-0.88,-0.8720660292141861
-0.36,-0.88,-0.8573353183824924
-0.33999999999999997,-0.88,-0.8290839174326123
-0.31999999999999995,-0.88,-0.7877573678340947
-0.29999999999999993,-0.88,-0.7340074139613916
-0.28,-0.88,-0.668681724695742
-0.26,-0.88,-0.5928105251805404
-0.24,-0.88,-0.5075903495553995
-0.21999999999999997,-0.88,-0.4143651708979924
-0.19999999999999996,-0.88,-0.31460520596576924
-0.17999999999999994,-0.88,-0.20988372899942534
-0.16000000000000003,-0.88,-0.10185226024829808
-0.14,-0.88,0.007785479490536094
-0.12,-0.88,0.11730043756698448
-0.09999999999999998,-0.88,0.22496549767111673
-0.07999999999999996,-0.88,0.32908271748910123
-0.05999999999999994,-0.88,0.428010106267796
-0.040000000000000036,-0.88,0.5201875199898034
-0.020000000000000018,-0.88,0.6041612657766094
0.0,-0.88,0.6786070274936719
0.020000000000000018,-0.88,0.7423507510069708
0.040000000000000036,-0.88,0.7943871597180459
0.06000000000000005,-0.88,0.8338956083764806
0.08000000000000007,-0.88,0.8602530251457272
0.10000000000000009,-0.88,0.8730437378181778
0.1200000000000001,-0.88,0.872066029214186
0.14000000000000012,-0.88,0.8573353183824924
0.15999999999999992,-0.88,0.8290839174326122
0.17999999999999994,-0.88,0.7877573678340946
0.19999999999999996,-0.88,0.7340074139613915
0.21999999999999997,-0.88,0.6686817246957419
0.24,-0.88,0.5928105251805402
0.26,-0.88,0.5075903495553993
0.28,-0.88,0.4143651708979923
0.30000000000000004,-0.88,0.3146052059657692
0.32000000000000006,-0.88,0.20988372899942526
0.3400000000000001,-0.88,0.10185226024829798
0.3600000000000001,-0.88,-0.007785479490536115
0.3800000000000001,-0.88,-0.11730043756698451
0.40000000000000013,-0.88,-0.2249654976711168
0.41999999999999993,-0.88,-0.3290827174891013
0.43999999999999995,-0.88,-0.42801010626779606
0.45999999999999996,-0.88,-0.5201875199898035
0.48,-0.88,-0.6041612657766092
0.5,-0.88,-0.6786070274936719
0.52,-0.88,-0.7423507510069706
0.54,-0.88,-0.7943871597180459
0.56,-0.88,-0.8338956083764806
0.5800000000000001,-0.88,-0.8602530251457273
0.6000000000000001,-0.88,-0.8730437378181776
0.6200000000000001,-0.88,-0.8720660292141861
0.6400000000000001,-0.88,-0.8573353183824924
0.6600000000000001,-0.88,-0.8290839174326123
0.6799999999999999,-0.88,-0.7877573678340946
0.7,-0.88,-0.7340074139613914
0.72,-0.88,-0.6686817246957419
0.74,-0.88,-0.5928105251805406
0.76,-0.88,-0.5075903495553994
0.78,-0.88,-0.41436517089799235
0.8,-0.88,-0.3146052059657692
0.8200000000000001,-0.88,-0.20988372899942537
0.8400000000000001,-0.88,-0.10185226024829812
0.8600000000000001,-0.88,0.007785479490535924
0.8800000000000001,-0.88,0.1173004375669844
0.9000000000000001,-0.88,0.22496549767111665
0.9199999999999999,-0.88,0.3290827174891011
0.94,-0.88,0.4280101062677959
0.96,-0.88,0.5201875199898033
0.98,-0.88,0.6041612657766094
1.0,-0.88,0.6786070274936721

-1.0,-0.86,0.6778302920878347
-0.98,-0.86,0.7389867732503231
-0.96,-0.86,0.7884889915493539
-0.94,-0.86,0.8255562674311588
-0.92,-0.86,0.8496040278121642
-0.9,-0.86,0.8602530251457264
-0.88,-0.86,0.8573353183824924
-0.86,-0.86,0.8408969215010722
-0.84,-0.86,0.8111970778401083
-0.8200000000000001,-0.86,0.7687041716759601
-0.8,-0.86,0.7140883415228683
-0.78,-0.86,0.6482109116482624
-0.76,-0.86,0.5721108084745345
-0.74,-0.86,0.4869881760887322
-0.72,-0.86,0.3941854492533751
-0.7,-0.86,0.29516618240831877
-0.6799999999999999,-0.86,0.19149196854295253
-0.6599999999999999,-0.86,0.08479781194190646
-0.64,-0.86,-0.023233656809220946
-0.62,-0.86,-0.13089871691335322
-0.6,-0.86,-0.23649942605665863
-0.5800000000000001,-0.86,-0.33837039797314145
-0.56,-0.86,-0.4349050665809096
-0.54,-0.86,-0.524581022489003
-0.52,-0.86,-0.6059840223029316
-0.5,-0.86,-0.6778302920878347
-0.48,-0.86,-0.7389867732503232
-0.45999999999999996,-0.86,-0.7884889915493538
-0.43999999999999995,-0.86,-0.8255562674311587
-0.42000000000000004,-0.86,-0.8496040278121642
-0.4,-0.86,-0.8602530251457263
-0.38,-0.86,-0.8573353183824924
-0.36,-0.86,-0.8408969215010723
-0.33999999999999997,-0.86,-0.8111970778401083
-0.31999999999999995,-0.86,-0.76870417167596
-0.29999999999999993,-0.86,-0.7140883415228683
-0.28,-0.86,-0.6482109116482625
-0.26,-0.86,-0.5721108084745347
-0.24,-0.86,-0.4869881760887322
-0.21999999999999997,-0.86,-0.3941854492533751
-0.19999999999999996,-0.86,-0.29516618240831866
-0.17999999999999994,-0.86,-0.19149196854295242
-0.16000000000000003,-0.86,-0.0847978119419064
-0.14,-0.86,0.023233656809220973
-0.12,-0.86,0.13089871691335317
-0.09999999999999998,-0.86,0.23649942605665858
-0.07999999999999996,-0.86,0.33837039797314145
-0.05999999999999994,-0.86,0.43490506658090955
-0.040000000000000036,-0.86,0.5245810224890031
-0.020000000000000018,-0.86,0.6059840223029316
0.0,-0.86,0.6778302920878349
0.020000000000000018,-0.86,0.7389867732503232
0.040000000000000036,-0.86,0.7884889915493539
0.06000000000000005,-0.86,0.8255562674311585
0.08000000000000007,-0.86,0.849604027812164
0.10000000000000009,-0.86,0.8602530251457261
0.1200000000000001,-0.86,0.8573353183824924
0.14000000000000012,-0.86,0.8408969215010722
0.15999999999999992,-0.86,0.8111970778401082
0.17999999999999994,-0.86,0.76870417167596
0.19999999999999996,-0.86,0.7140883415228682
0.21999999999999997,-0.86,0.6482109116482623
0.24,-0.86,0.5721108084745344
0.26,-0.86,0.486988176088732
0.28,-0.86,0.39418544925337495
0.30000000000000004,-0.86,0.29516618240831854
0.32000000000000006,-0.86,0.19149196854295225
0.3400000000000001,-0.86,0.08479781194190632
0.3600000000000001,-0.86,-0.023233656809221015
0.3800000000000001,-0.86,-0.13089871691335322
0.40000000000000013,-0.86,-0.2364994260566586
0.41999999999999993,-0.86,-0.33837039797314145
0.43999999999999995,-0.86,-0.4349050665809096