TITLE = "Solution" 
VARIABLES = "x", "y", "sol" 
ZONE STRANDID=1, SOLUTIONTIME= 0.07999999999999997, I= 101, J =101, DATAPACKING=POINT 
-1.0,-1.0,0.20140230516199342
-0.98,-1.0,0.1469030132839342
-0.96,-1.0,0.09008697313078076
-0.94,-1.0,0.03185020759600561
-0.92,-1.0,-0.02688885473895031
-0.9,-1.0,-0.08520386377204972
-0.88,-1.0,-0.14217515697514274
-0.86,-1.0,-0.1969042630214157
-0.84,-1.0,-0.24852807121493575
-0.8200000000000001,-1.0,-0.2962324432619228
-0.8,-1.0,-0.33926505271798546
-0.78,-1.0,-0.37694724962556647
-0.76,-1.0,-0.40868476322918024
-0.74,-1.0,-0.43397707398022584
-0.72,-1.0,-0.45242530702926553
-0.7,-1.0,-0.46373852272067556
-0.6799999999999999,-1.0,-0.4677383048848149
-0.6599999999999999,-1.0,-0.4643615745676008
-0.64,-1.0,-0.4536615848232972
-0.62,-1.0,-0.43580708088203535
-0.6,-1.0,-0.4110796389367328
-0.5800000000000001,-1.0,-0.37986922551832486
-0.56,-1.0,-0.34266804749061697
-0.54,-1.0,-0.3000627896540126
-0.52,-1.0,-0.25272536237574256
-0.5,-1.0,-0.2014023051619933
-0.48,-1.0,-0.14690301328393407
-0.45999999999999996,-1.0,-0.09008697313078065
-0.43999999999999995,-1.0,-0.031850207596005556
-0.42000000000000004,-1.0,0.026888854738950314
-0.4,-1.0,0.08520386377204968
-0.38,-1.0,0.14217515697514269
-0.36,-1.0,0.19690426302141567
-0.33999999999999997,-1.0,0.2485280712149357
-0.31999999999999995,-1.0,0.2962324432619228
-0.29999999999999993,-1.0,0.3392650527179853
-0.28,-1.0,0.3769472496255664
-0.26,-1.0,0.4086847632291802
-0.24,-1.0,0.4339770739802259
-0.21999999999999997,-1.0,0.4524253070292656
-0.19999999999999996,-1.0,0.46373852272067556
-0.17999999999999994,-1.0,0.46773830488481477
-0.16000000000000003,-1.0,0.46436157456760085
-0.14,-1.0,0.45366158482329716
-0.12,-1.0,0.4358070808820354
-0.09999999999999998,-1.0,0.4110796389367329
-0.07999999999999996,-1.0,0.37986922551832486
-0.05999999999999994,-1.0,0.3426680474906169
-0.040000000000000036,-1.0,0.3000627896540127
-0.020000000000000018,-1.0,0.25272536237574245
0.0,-1.0,0.20140230516199314
0.020000000000000018,-1.0,0.14690301328393396
0.040000000000000036,-1.0,0.09008697313078058
0.06000000000000005,-1.0,0.03185020759600559
0.08000000000000007,-1.0,-0.02688885473895025
0.10000000000000009,-1.0,-0.08520386377204962
0.1200000000000001,-1.0,-0.14217515697514266
0.14000000000000012,-1.0,-0.19690426302141573
0.15999999999999992,-1.0,-0.2485280712149358
0.17999999999999994,-1.0,-0.2962324432619229
0.19999999999999996,-1.0,-0.3392650527179854
0.21999999999999997,-1.0,-0.3769472496255664
0.24,-1.0,-0.40868476322918007
0.26,-1.0,-0.43397707398022584
0.28,-1.0,-0.4524253070292655
0.30000000000000004,-1.0,-0.46373852272067556
0.32000000000000006,-1.0,-0.46773830488481477
0.3400000000000001,-1.0,-0.46436157456760085
0.3600000000000001,-1.0,-0.45366158482329716
0.3800000000000001,-1.0,-0.43580708088203535
0.40000000000000013,-1.0,-0.41107963893673277
0.41999999999999993,-1.0,-0.37986922551832475
0.43999999999999995,-1.0,-0.3426680474906168
0.45999999999999996,-1.0,-0.30006278965401245
0.48,-1.0,-0.2527253623757425
0.5,-1.0,-0.20140230516199334
0.52,-1.0,-0.1469030132839341
0.54,-1.0,-0.09008697313078076
0.56,-1.0,-0.03185020759600567
0.5800000000000001,-1.0,0.02688885473895021
0.6000000000000001,-1.0,0.08520386377204957
0.6200000000000001,-1.0,0.1421751569751426
0.6400000000000001,-1.0,0.19690426302141564
0.6600000000000001,-1.0,0.2485280712149357
0.6799999999999999,-1.0,0.29623244326192283
0.7,-1.0,0.3392650527179854
0.72,-1.0,0.3769472496255664
0.74,-1.0,0.4086847632291801
0.76,-1.0,0.4339770739802258
0.78,-1.0,0.4524253070292655
0.8,-1.0,0.4637385227206755
0.8200000000000001,-1.0,0.46773830488481477
0.8400000000000001,-1.0,0.46436157456760085
0.8600000000000001,-1.0,0.4536615848232972
0.8800000000000001,-1.0,0.43580708088203546
0.9000000000000001,-1.0,0.4110796389367329
0.9199999999999999,-1.0,0.3798692255183248
0.94,-1.0,0.34266804749061686
0.96,-1.0,0.3000627896540126
0.98,-1.0,0.2527253623757426
1.0,-1.0,0.20140230516199342

-1.0,-0.98,0.14690301328393424
-0.98,-0.98,0.10483138894078602
-0.96,-0.98,0.061106510970805224
-0.94,-0.98,0.016417946819554545
-0.92,-0.98,-0.02852953816064656
-0.9,-0.98,-0.07302709528133422
-0.88,-0.98,-0.116372971485163
-0.86,-0.98,-0.15788357641082726
-0.84,-0.98,-0.19690426302141578
-0.8200000000000001,-0.98,-0.23281965177925146
-0.8,-0.98,-0.2650633355488098
-0.78,-0.98,-0.2931268121756018
-0.76,-0.98,-0.31656750386891463
-0.74,-0.98,-0.3350157369179543
-0.72,-0.98,-0.3481805716670972
-0.7,-0.98,-0.3558543908080583
-0.6799999999999999,-0.98,-0.3579161736288671
-0.6599999999999999,-0.98,-0.35433340458279033
-0.64,-0.98,-0.345162586077927
-0.62,-0.98,-0.3305483474004803
-0.6,-0.98,-0.31072116382451653
-0.5800000000000001,-0.98,-0.28599372187921407
-0.56,-0.98,-0.25675598809550804
-0.54,-0.98,-0.22346905900094316
-0.52,-0.98,-0.1866578893519882
-0.5,-0.98,-0.14690301328393407
-0.48,-0.98,-0.10483138894078589
-0.45999999999999996,-0.98,-0.06110651097080515
-0.43999999999999995,-0.98,-0.016417946819554503
-0.42000000000000004,-0.98,0.02852953816064655
-0.4,-0.98,0.07302709528133419
-0.38,-0.98,0.116372971485163
-0.36,-0.98,0.1578835764108272
-0.33999999999999997,-0.98,0.19690426302141578
-0.31999999999999995,-0.98,0.2328196517792514
-0.29999999999999993,-0.98,0.26506333554880973
-0.28,-0.98,0.2931268121756017
-0.26,-0.98,0.3165675038689146
-0.24,-0.98,0.33501573691795433
-0.21999999999999997,-0.98,0.3481805716670972
-0.19999999999999996,-0.98,0.35585439080805825
-0.17999999999999994,-0.98,0.3579161736288671
-0.16000000000000003,-0.98,0.3543334045827903
-0.14,-0.98,0.345162586077927
-0.12,-0.98,0.3305483474004803
-0.09999999999999998,-0.98,0.31072116382451653
-0.07999999999999996,-0.98,0.28599372187921407
-0.05999999999999994,-0.98,0.2567559880955081
-0.040000000000000036,-0.98,0.2234690590009431
-0.020000000000000018,-0.98,0.18665788935198807
0.0,-0.98,0.14690301328393401
0.020000000000000018,-0.98,0.10483138894078578
0.040000000000000036,-0.98,0.06110651097080513
0.06000000000000005,-0.98,0.016417946819554528
0.08000000000000007,-0.98,-0.028529538160646496
0.10000000000000009,-0.98,-0.07302709528133414
0.1200000000000001,-0.98,-0.11637297148516296
0.14000000000000012,-0.98,-0.15788357641082726
0.15999999999999992,-0.98,-0.19690426302141584
0.17999999999999994,-0.98,-0.23281965177925149
0.19999999999999996,-0.98,-0.2650633355488098
0.21999999999999997,-0.98,-0.2931268121756017
0.24,-0.98,-0.3165675038689146
0.26,-0.98,-0.3350157369179543
0.28,-0.98,-0.3481805716670971
0.30000000000000004,-0.98,-0.3558543908080582
0.32000000000000006,-0.98,-0.3579161736288671
0.3400000000000001,-0.98,-0.3543334045827903
0.3600000000000001,-0.98,-0.345162586077927
0.3800000000000001,-0.98,-0.3305483474004803
0.40000000000000013,-0.98,-0.3107211638245165
0.41999999999999993,-0.98,-0.28599372187921396
0.43999999999999995,-0.98,-0.25675598809550787
0.45999999999999996,-0.98,-0.22346905900094305
0.48,-0.98,-0.18665788935198815
0.5,-0.98,-0.1469030132839341
0.52,-0.98,-0.10483138894078596
0.54,-0.98,-0.061106510970805224
0.56,-0.98,-0.01641794681955458
0.5800000000000001,-0.98,0.028529538160646458
0.6000000000000001,-0.98,0.0730270952813341
0.6200000000000001,-0.98,0.11637297148516292
0.6400000000000001,-0.98,0.15788357641082718
0.6600000000000001,-0.98,0.19690426302141578
0.6799999999999999,-0.98,0.23281965177925143
0.7,-0.98,0.26506333554880973
0.72,-0.98,0.2931268121756017
0.74,-0.98,0.3165675038689145
0.76,-0.98,0.33501573691795417
0.78,-0.98,0.3481805716670971
0.8,-0.98,0.3558543908080582
0.8200000000000001,-0.98,0.3579161736288671
0.8400000000000001,-0.98,0.3543334045827903
0.8600000000000001,-0.98,0.34516258607792705
0.8800000000000001,-0.98,0.33054834740048034
0.9000000000000001,-0.98,0.31072116382451653
0.9199999999999999,-0.98,0.285993721879214
0.94,-0.98,0.256755988095508
0.96,-0.98,0.2234690590009431
0.98,-0.98,0.1866578893519882
1.0,-0.98,0.1469030132839342

-1.0,-0.96,0.09008697313078078
-0.98,-0.96,0.061106510970805224
-0.96,-0.96,0.03116236262955977
-0.94,-0.96,0.0007267652141530138
-0.92,-0.96,-0.02972029372282942
-0.9,-0.96,-0.0596986458737599
-0.88,-0.96,-0.08873551471701871
-0.86,-0.96,-0.11637297148516301
-0.84,-0.96,-0.14217515697514282
-0.8200000000000001,-0.96,-0.16573515530830263
-0.8,-0.96,-0.18668141123686774
-0.78,-0.96,-0.20468358979215778
-0.76,-0.96,-0.2194577858643757
-0.74,-0.96,-0.23077100155578567
-0.72,-0.96,-0.23844482069674683
-0.7,-0.96,-0.24235822257528855
-0.6799999999999999,-0.96,-0.2424494905060335
-0.6599999999999999,-0.96,-0.238717185139193
-0.64,-0.96,-0.23122016715997323
-0.62,-0.96,-0.22007666902040796
-0.6,-0.96,-0.2054624303429613
-0.5800000000000001,-0.96,-0.1876079264016995
-0.56,-0.96,-0.16679473338954004
-0.54,-0.96,-0.14335108779348343
-0.52,-0.96,-0.11764670990913453
-0.5,-0.96,-0.09008697313078068
-0.48,-0.96,-0.06110651097080515
-0.45999999999999996,-0.96,-0.03116236262955971
-0.43999999999999995,-0.96,-0.000726765214152999
-0.42000000000000004,-0.96,0.0297202937228294
-0.4,-0.96,0.05969864587375987
-0.38,-0.96,0.08873551471701868
-0.36,-0.96,0.11637297148516298
-0.33999999999999997,-0.96,0.14217515697514277
-0.31999999999999995,-0.96,0.1657351553083026
-0.29999999999999993,-0.96,0.18668141123686766
-0.28,-0.96,0.20468358979215773
-0.26,-0.96,0.2194577858643757
-0.24,-0.96,0.23077100155578573
-0.21999999999999997,-0.96,0.23844482069674677
-0.19999999999999996,-0.96,0.24235822257528855
-0.17999999999999994,-0.96,0.24244949050603348
-0.16000000000000003,-0.96,0.238717185139193
-0.14,-0.96,0.2312201671599732
-0.12,-0.96,0.22007666902040798
-0.09999999999999998,-0.96,0.2054624303429613
-0.07999999999999996,-0.96,0.1876079264016995
-0.05999999999999994,-0.96,0.16679473338954004
-0.040000000000000036,-0.96,0.14335108779348338
-0.020000000000000018,-0.96,0.1176467099091345
0.0,-0.96,0.09008697313078058
0.020000000000000018,-0.96,0.061106510970805106
0.040000000000000036,-0.96,0.031162362629559705
0.06000000000000005,-0.96,0.0007267652141530294
0.08000000000000007,-0.96,-0.029720293722829364
0.10000000000000009,-0.96,-0.05969864587375984
0.1200000000000001,-0.96,-0.08873551471701865
0.14000000000000012,-0.96,-0.11637297148516301
0.15999999999999992,-0.96,-0.14217515697514282
0.17999999999999994,-0.96,-0.16573515530830263
0.19999999999999996,-0.96,-0.18668141123686768
0.21999999999999997,-0.96,-0.20468358979215773
0.24,-0.96,-0.21945778586437567
0.26,-0.96,-0.23077100155578562
0.28,-0.96,-0.23844482069674672
0.30000000000000004,-0.96,-0.24235822257528858
0.32000000000000006,-0.96,-0.24244949050603348
0.3400000000000001,-0.96,-0.238717185139193
0.3600000000000001,-0.96,-0.23122016715997323
0.3800000000000001,-0.96,-0.22007666902040798
0.40000000000000013,-0.96,-0.20546243034296127
0.41999999999999993,-0.96,-0.18760792640169943
0.43999999999999995,-0.96,-0.16679473338953996
0.45999999999999996,-0.96,-0.14335108779348332
0.48,-0.96,-0.11764670990913453
0.5,-0.96,-0.0900869731307807
0.52,-0.96,-0.0611065109708052
0.54,-0.96,-0.031162362629559764
0.56,-0.96,-0.0007267652141530606
0.5800000000000001,-0.96,0.029720293722829336
0.6000000000000001,-0.96,0.05969864587375982
0.6200000000000001,-0.96,0.08873551471701864
0.6400000000000001,-0.96,0.11637297148516298
0.6600000000000001,-0.96,0.1421751569751428
0.6799999999999999,-0.96,0.16573515530830263
0.7,-0.96,0.1866814112368677
0.72,-0.96,0.20468358979215773
0.74,-0.96,0.21945778586437562
0.76,-0.96,0.23077100155578562
0.78,-0.96,0.23844482069674672
0.8,-0.96,0.24235822257528858
0.8200000000000001,-0.96,0.24244949050603354
0.8400000000000001,-0.96,0.23871718513919304
0.8600000000000001,-0.96,0.2312201671599733
0.8800000000000001,-0.96,0.22007666902040798
0.9000000000000001,-0.96,0.2054624303429613
0.9199999999999999,-0.96,0.1876079264016995
0.94,-0.96,0.16679473338953998
0.96,-0.96,0.14335108779348338
0.98,-0.96,0.11764670990913462
1.0,-0.96,0.09008697313078079

-1.0,-0.94,0.03185020759600562
-0.98,-0.94,0.016417946819554538
-0.96,-0.94,0.000726765214153012
-0.94,-0.94,-0.014975877912824204
-0.92,-0.94,-0.030442342498960332
-0.9,-0.94,-0.0454287131585139
-0.88,-0.94,-0.05969864587375984
-0.86,-0.94,-0.07302709528133416
-0.84,-0.94,-0.08520386377204969
-0.8200000000000001,-0.94,-0.09603691643275894
-0.8,-0.94,-0.10535540955165049
-0.78,-0.94,-0.11301238492564147
-0.76,-0.94,-0.11888708747902868
-0.74,-0.94,-0.12288686964316803
-0.72,-0.94,-0.12494865246397693
-0.7,-0.94,-0.1250399203947219
-0.6799999999999999,-0.94,-0.12315923408561429
-0.6599999999999999,-0.94,-0.11933625308321628
-0.64,-0.94,-0.11363126808167379
-0.62,-0.94,-0.10613425010245404
-0.6,-0.94,-0.09696343159759077
-0.5800000000000001,-0.94,-0.0862634418532871
-0.56,-0.94,-0.07420302609967477
-0.54,-0.94,-0.06097238429773133
-0.52,-0.94,-0.04678017157227582
-0.5,-0.94,-0.03185020759600555
-0.48,-0.94,-0.01641794681955449
-0.45999999999999996,-0.94,-0.0007267652141529895
-0.43999999999999995,-0.94,0.014975877912824193
-0.42000000000000004,-0.94,0.030442342498960308
-0.4,-0.94,0.04542871315851387
-0.38,-0.94,0.05969864587375982
-0.36,-0.94,0.07302709528133414
-0.33999999999999997,-0.94,0.08520386377204966
-0.31999999999999995,-0.94,0.09603691643275891
-0.29999999999999993,-0.94,0.10535540955165047
-0.28,-0.94,0.11301238492564145
-0.26,-0.94,0.11888708747902868
-0.24,-0.94,0.12288686964316801
-0.21999999999999997,-0.94,0.12494865246397693
-0.19999999999999996,-0.94,0.1250399203947219
-0.17999999999999994,-0.94,0.12315923408561429
-0.16000000000000003,-0.94,0.11933625308321627
-0.14,-0.94,0.1136312680816738
-0.12,-0.94,0.10613425010245407
-0.09999999999999998,-0.94,0.09696343159759077
-0.07999999999999996,-0.94,0.08626344185328712
-0.05999999999999994,-0.94,0.07420302609967473
-0.040000000000000036,-0.94,0.06097238429773132
-0.020000000000000018,-0.94,0.04678017157227576
0.0,-0.94,0.0318502075960055
0.020000000000000018,-0.94,0.01641794681955447
0.040000000000000036,-0.94,0.0007267652141530138
0.06000000000000005,-0.94,-0.01497587791282416
0.08000000000000007,-0.94,-0.03044234249896028
0.10000000000000009,-0.94,-0.04542871315851384
0.1200000000000001,-0.94,-0.05969864587375982
0.14000000000000012,-0.94,-0.07302709528133418
0.15999999999999992,-0.94,-0.08520386377204972
0.17999999999999994,-0.94,-0.09603691643275894
0.19999999999999996,-0.94,-0.10535540955165049
0.21999999999999997,-0.94,-0.11301238492564142
0.24,-0.94,-0.11888708747902862
0.26,-0.94,-0.122886869643168
0.28,-0.94,-0.12494865246397693
0.30000000000000004,-0.94,-0.12503992039472192
0.32000000000000006,-0.94,-0.1231592340856143
0.3400000000000001,-0.94,-0.11933625308321627
0.3600000000000001,-0.94,-0.11363126808167379
0.3800000000000001,-0.94,-0.10613425010245407
0.40000000000000013,-0.94,-0.09696343159759074
0.41999999999999993,-0.94,-0.08626344185328708
0.43999999999999995,-0.94,-0.07420302609967469
0.45999999999999996,-0.94,-0.060972384297731316
0.48,-0.94,-0.04678017157227581
0.5,-0.94,-0.03185020759600559
0.52,-0.94,-0.016417946819554524
0.54,-0.94,-0.0007267652141530311
0.56,-0.94,0.014975877912824162
0.5800000000000001,-0.94,0.03044234249896028
0.6000000000000001,-0.94,0.04542871315851384
0.6200000000000001,-0.94,0.05969864587375982
0.6400000000000001,-0.94,0.07302709528133415
0.6600000000000001,-0.94,0.08520386377204969
0.6799999999999999,-0.94,0.09603691643275894
0.7,-0.94,0.10535540955165049
0.72,-0.94,0.11301238492564145
0.74,-0.94,0.11888708747902864
0.76,-0.94,0.12288686964316799
0.78,-0.94,0.12494865246397693
0.8,-0.94,0.12503992039472192
0.8200000000000001,-0.94,0.1231592340856143
0.8400000000000001,-0.94,0.1193362530832163
0.8600000000000001,-0.94,0.11363126808167383
0.8800000000000001,-0.94,0.10613425010245406
0.9000000000000001,-0.94,0.09696343159759079
0.9199999999999999,-0.94,0.08626344185328708
0.94,-0.94,0.07420302609967472
0.96,-0.94,0.06097238429773136
0.98,-0.94,0.046780171572275875
1.0,-0.94,0.031850207596005625

-1.0,-0.92,-0.02688885473895032
-0.98,-0.92,-0.028529538160646562
-0.96,-0.92,-0.029720293722829416
-0.94,-0.92,-0.03044234249896033
-0.92,-0.92,-0.03068429734850868
-0.9,-0.92,-0.030442342498960266
-0.88,-0.92,-0.029720293722829312
-0.86,-0.92,-0.028529538160646455
-0.84,-0.92,-0.026888854738950203
-0.8200000000000001,-0.92,-0.024824118015397502
-0.8,-0.92,-0.022367890121532667
-0.78,-0.92,-0.01955890723852135
-0.76,-0.92,-0.016441468704433727
-0.74,-0.92,-0.013064738387219825
-0.72,-0.92,-0.009481969341143086
-0.7,-0.92,-0.005749663974302599
-0.6799999999999999,-0.92,-0.0019266829719045836
-0.6599999999999999,-0.92,0.001926682971904993
-0.64,-0.92,0.0057496639743030015
-0.62,-0.92,0.009481969341143474
-0.6,-0.92,0.0130647383872202
-0.5800000000000001,-0.92,0.016441468704434026
-0.56,-0.92,0.01955890723852162
-0.54,-0.92,0.022367890121532848
-0.52,-0.92,0.02482411801539769
-0.5,-0.92,0.026888854738950363
-0.48,-0.92,0.028529538160646576
-0.45999999999999996,-0.92,0.02972029372282939
-0.43999999999999995,-0.92,0.030442342498960297
-0.42000000000000004,-0.92,0.03068429734850864
-0.4,-0.92,0.03044234249896025
-0.38,-0.92,0.0297202937228293
-0.36,-0.92,0.02852953816064644
-0.33999999999999997,-0.92,0.026888854738950193
-0.31999999999999995,-0.92,0.0248241180153975
-0.29999999999999993,-0.92,0.022367890121532664
-0.28,-0.92,0.01955890723852133
-0.26,-0.92,0.01644146870443372
-0.24,-0.92,0.013064738387219853
-0.21999999999999997,-0.92,0.009481969341143093
-0.19999999999999996,-0.92,0.005749663974302585
-0.17999999999999994,-0.92,0.0019266829719045767
-0.16000000000000003,-0.92,-0.001926682971905
-0.14,-0.92,-0.005749663974302974
-0.12,-0.92,-0.009481969341143454
-0.09999999999999998,-0.92,-0.013064738387220179
-0.07999999999999996,-0.92,-0.01644146870443404
-0.05999999999999994,-0.92,-0.019558907238521613
-0.040000000000000036,-0.92,-0.022367890121532882
-0.020000000000000018,-0.92,-0.024824118015397703
0.0,-0.92,-0.02688885473895038
0.020000000000000018,-0.92,-0.028529538160646562
0.040000000000000036,-0.92,-0.029720293722829354
0.06000000000000005,-0.92,-0.030442342498960266
0.08000000000000007,-0.92,-0.03068429734850862
0.10000000000000009,-0.92,-0.030442342498960245
0.1200000000000001,-0.92,-0.029720293722829322
0.14000000000000012,-0.92,-0.02852953816064648
0.15999999999999992,-0.92,-0.026888854738950235
0.17999999999999994,-0.92,-0.02482411801539751
0.19999999999999996,-0.92,-0.022367890121532626
0.21999999999999997,-0.92,-0.019558907238521297
0.24,-0.92,-0.016441468704433693
0.26,-0.92,-0.013064738387219839
0.28,-0.92,-0.00948196934114312
0.30000000000000004,-0.92,-0.00574966397430262
0.32000000000000006,-0.92,-0.0019266829719045905
0.3400000000000001,-0.92,0.001926682971905
0.3600000000000001,-0.92,0.005749663974302974
0.3800000000000001,-0.92,0.009481969341143467
0.40000000000000013,-0.92,0.013064738387220179
0.41999999999999993,-0.92,0.016441468704434054
0.43999999999999995,-0.92,0.019558907238521626
0.45999999999999996,-0.92,0.02236789012153287
0.48,-0.92,0.024824118015397634
0.5,-0.92,0.026888854738950314
0.52,-0.92,0.028529538160646527
0.54,-0.92,0.02972029372282938
0.56,-0.92,0.030442342498960297
0.5800000000000001,-0.92,0.03068429734850864
0.6000000000000001,-0.92,0.030442342498960252
0.6200000000000001,-0.92,0.02972029372282932
0.6400000000000001,-0.92,0.02852953816064647
0.6600000000000001,-0.92,0.026888854738950235
0.6799999999999999,-0.92,0.024824118015397505
0.7,-0.92,0.022367890121532664
0.72,-0.92,0.01955890723852133
0.74,-0.92,0.016441468704433707
0.76,-0.92,0.013064738387219853
0.78,-0.92,0.00948196934114312
0.8,-0.92,0.005749663974302613
0.8200000000000001,-0.92,0.0019266829719046044
0.8400000000000001,-0.92,-0.001926682971904986
0.8600000000000001,-0.92,-0.0057496639743029945
0.8800000000000001,-0.92,-0.009481969341143467
0.9000000000000001,-0.92,-0.013064738387220207
0.9199999999999999,-0.92,-0.016441468704434054
0.94,-0.92,-0.019558907238521626
0.96,-0.92,-0.022367890121532834
0.98,-0.92,-0.02482411801539762
1.0,-0.92,-0.02688885473895032

-1.0,-0.9,-0.08520386377204972
-0.98,-0.9,-0.07302709528133422
-0.96,-0.9,-0.05969864587375989
-0.94,-0.9,-0.0454287131585139
-0.92,-0.9,-0.03044234249896027
-0.9,-0.9,-0.01497587791282409
-0.88,-0.9,0.0007267652141531473
-0.86,-0.9,0.01641794681955469
-0.84,-0.9,0.03185020759600576
-0.8200000000000001,-0.9,0.04678017157227603
-0.8,-0.9,0.06097238429773161
-0.78,-0.9,0.07420302609967508
-0.76,-0.9,0.0862634418532875
-0.74,-0.9,0.09696343159759119
-0.72,-0.9,0.10613425010245445
-0.7,-0.9,0.11363126808167422
-0.6799999999999999,-0.9,0.11933625308321669
-0.6599999999999999,-0.9,0.12315923408561467
-0.64,-0.9,0.12503992039472223
-0.62,-0.9,0.1249486524639772
-0.6,-0.9,0.1228868696431682
-0.5800000000000001,-0.9,0.11888708747902887
-0.56,-0.9,0.11301238492564156
-0.54,-0.9,0.10535540955165057
-0.52,-0.9,0.096036916432759
-0.5,-0.9,0.08520386377204976
-0.48,-0.9,0.07302709528133419
-0.45999999999999996,-0.9,0.05969864587375983
-0.43999999999999995,-0.9,0.04542871315851383
-0.42000000000000004,-0.9,0.03044234249896023
-0.4,-0.9,0.014975877912824077
-0.38,-0.9,-0.0007267652141531404
-0.36,-0.9,-0.016417946819554677
-0.33999999999999997,-0.9,-0.03185020759600576
-0.31999999999999995,-0.9,-0.046780171572276014
-0.29999999999999993,-0.9,-0.060972384297731615
-0.28,-0.9,-0.07420302609967508
-0.26,-0.9,-0.08626344185328746
-0.24,-0.9,-0.09696343159759117
-0.21999999999999997,-0.9,-0.10613425010245447
-0.19999999999999996,-0.9,-0.11363126808167422
-0.17999999999999994,-0.9,-0.11933625308321669
-0.16000000000000003,-0.9,-0.12315923408561463
-0.14,-0.9,-0.12503992039472217
-0.12,-0.9,-0.12494865246397716
-0.09999999999999998,-0.9,-0.12288686964316822
-0.07999999999999996,-0.9,-0.11888708747902886
-0.05999999999999994,-0.9,-0.11301238492564158
-0.040000000000000036,-0.9,-0.1053554095516506
-0.020000000000000018,-0.9,-0.096036916432759
0.0,-0.9,-0.08520386377204975
0.020000000000000018,-0.9,-0.07302709528133414
0.040000000000000036,-0.9,-0.05969864587375979
0.06000000000000005,-0.9,-0.0454287131585138
0.08000000000000007,-0.9,-0.03044234249896022
0.10000000000000009,-0.9,-0.014975877912824093
0.1200000000000001,-0.9,0.0007267652141531127
0.14000000000000012,-0.9,0.016417946819554625
0.15999999999999992,-0.9,0.031850207596005736
0.17999999999999994,-0.9,0.04678017157227606
0.19999999999999996,-0.9,0.06097238429773166
0.21999999999999997,-0.9,0.07420302609967512
0.24,-0.9,0.08626344185328749
0.26,-0.9,0.09696343159759117
0.28,-0.9,0.10613425010245442
0.30000000000000004,-0.9,0.11363126808167417
0.32000000000000006,-0.9,0.11933625308321666
0.3400000000000001,-0.9,0.12315923408561463
0.3600000000000001,-0.9,0.12503992039472217
0.3800000000000001,-0.9,0.12494865246397717
0.40000000000000013,-0.9,0.12288686964316822
0.41999999999999993,-0.9,0.11888708747902887
0.43999999999999995,-0.9,0.11301238492564158
0.45999999999999996,-0.9,0.10535540955165051
0.48,-0.9,0.09603691643275891
0.5,-0.9,0.08520386377204966
0.52,-0.9,0.07302709528133416
0.54,-0.9,0.05969864587375985
0.56,-0.9,0.045428713158513864
0.5800000000000001,-0.9,0.030442342498960256
0.6000000000000001,-0.9,0.014975877912824113
0.6200000000000001,-0.9,-0.0007267652141531057
0.6400000000000001,-0.9,-0.016417946819554628
0.6600000000000001,-0.9,-0.031850207596005715
0.6799999999999999,-0.9,-0.046780171572276014
0.7,-0.9,-0.060972384297731615
0.72,-0.9,-0.07420302609967508
0.74,-0.9,-0.08626344185328746
0.76,-0.9,-0.09696343159759113
0.78,-0.9,-0.10613425010245445
0.8,-0.9,-0.11363126808167416
0.8200000000000001,-0.9,-0.11933625308321669
0.8400000000000001,-0.9,-0.12315923408561467
0.8600000000000001,-0.9,-0.12503992039472223
0.8800000000000001,-0.9,-0.12494865246397718
0.9000000000000001,-0.9,-0.12288686964316822
0.9199999999999999,-0.9,-0.11888708747902889
0.94,-0.9,-0.11301238492564156
0.96,-0.9,-0.10535540955165054
0.98,-0.9,-0.09603691643275894
1.0,-0.9,-0.08520386377204972

-1.0,-0.88,-0.14217515697514274
-0.98,-0.88,-0.11637297148516298
-0.96,-0.88,-0.08873551471701871
-0.94,-0.88,-0.05969864587375985
-0.92,-0.88,-0.029720293722829316
-0.9,-0.88,0.0007267652141531421
-0.88,-0.88,0.031162362629559914
-0.86,-0.88,0.061106510970805356
-0.84,-0.88,0.0900869731307809
-0.8200000000000001,-0.88,0.11764670990913481
-0.8,-0.88,0.14335108779348368
-0.78,-0.88,0.16679473338954037
-0.76,-0.88,0.18760792640169993
-0.74,-0.88,0.20546243034296172
-0.72,-0.88,0.2200766690204084
-0.7,-0.88,0.23122016715997365
-0.6799999999999999,-0.88,0.23871718513919338
-0.6599999999999999,-0.88,0.24244949050603382
-0.64,-0.88,0.24235822257528872
-0.62,-0.88,0.23844482069674683
-0.6,-0.88,0.23077100155578573
-0.5800000000000001,-0.88,0.2194577858643757
-0.56,-0.88,0.2046835897921577
-0.54,-0.88,0.18668141123686763
-0.52,-0.88,0.16573515530830257
-0.5,-0.88,0.14217515697514277
-0.48,-0.88,0.11637297148516294
-0.45999999999999996,-0.88,0.08873551471701861
-0.43999999999999995,-0.88,0.05969864587375977
-0.42000000000000004,-0.88,0.029720293722829264
-0.4,-0.88,-0.000726765214153156
-0.38,-0.88,-0.031162362629559893
-0.36,-0.88,-0.06110651097080534
-0.33999999999999997,-0.88,-0.09008697313078087
-0.31999999999999995,-0.88,-0.11764670990913478
-0.29999999999999993,-0.88,-0.14335108779348368
-0.28,-0.88,-0.16679473338954032
-0.26,-0.88,-0.18760792640169988
-0.24,-0.88,-0.2054624303429617
-0.21999999999999997,-0.88,-0.2200766690204084
-0.19999999999999996,-0.88,-0.23122016715997362
-0.17999999999999994,-0.88,-0.23871718513919332
-0.16000000000000003,-0.88,-0.24244949050603382
-0.14,-0.88,-0.24235822257528866
-0.12,-0.88,-0.23844482069674683
-0.09999999999999998,-0.88,-0.23077100155578567
-0.07999999999999996,-0.88,-0.2194577858643757
-0.05999999999999994,-0.88,-0.20468358979215773
-0.040000000000000036,-0.88,-0.1866814112368676
-0.020000000000000018,-0.88,-0.16573515530830257
0.0,-0.88,-0.14217515697514269
0.020000000000000018,-0.88,-0.11637297148516287
0.040000000000000036,-0.88,-0.08873551471701856
0.06000000000000005,-0.88,-0.059698645873759726
0.08000000000000007,-0.88,-0.02972029372282927
0.10000000000000009,-0.88,0.0007267652141531213
0.1200000000000001,-0.88,0.031162362629559837
0.14000000000000012,-0.88,0.0611065109708053
0.15999999999999992,-0.88,0.09008697313078087
0.17999999999999994,-0.88,0.11764670990913484
0.19999999999999996,-0.88,0.14335108779348374
0.21999999999999997,-0.88,0.1667947333895404
0.24,-0.88,0.18760792640169993
0.26,-0.88,0.2054624303429616
0.28,-0.88,0.2200766690204083
0.30000000000000004,-0.88,0.23122016715997362
0.32000000000000006,-0.88,0.23871718513919332
0.3400000000000001,-0.88,0.24244949050603382
0.3600000000000001,-0.88,0.24235822257528866
0.3800000000000001,-0.88,0.23844482069674683
0.40000000000000013,-0.88,0.23077100155578578
0.41999999999999993,-0.88,0.2194577858643757
0.43999999999999995,-0.88,0.20468358979215767
0.45999999999999996,-0.88,0.18668141123686752
0.48,-0.88,0.16573515530830243
0.5,-0.88,0.1421751569751427
0.52,-0.88,0.11637297148516294
0.54,-0.88,0.08873551471701865
0.56,-0.88,0.05969864587375982
0.5800000000000001,-0.88,0.029720293722829336
0.6000000000000001,-0.88,-0.000726765214153097
0.6200000000000001,-0.88,-0.031162362629559816
0.6400000000000001,-0.88,-0.06110651097080527
0.6600000000000001,-0.88,-0.09008697313078085
0.6799999999999999,-0.88,-0.11764670990913478
0.7,-0.88,-0.14335108779348368
0.72,-0.88,-0.16679473338954032
0.74,-0.88,-0.18760792640169982
0.76,-0.88,-0.20546243034296174
0.78,-0.88,-0.22007666902040834
0.8,-0.88,-0.23122016715997368
0.8200000000000001,-0.88,-0.23871718513919338
0.8400000000000001,-0.88,-0.24244949050603387
0.8600000000000001,-0.88,-0.24235822257528872
0.8800000000000001,-0.88,-0.2384448206967468
0.9000000000000001,-0.88,-0.23077100155578573
0.9199999999999999,-0.88,-0.21945778586437567
0.94,-0.88,-0.20468358979215773
0.96,-0.88,-0.18668141123686757
0.98,-0.88,-0.16573515530830252
1.0,-0.88,-0.14217515697514277

-1.0,-0.86,-0.19690426302141573
-0.98,-0.86,-0.15788357641082723
-0.96,-0.86,-0.11637297148516303
-0.94,-0.86,-0.07302709528133418
-0.92,-0.86,-0.02852953816064645
-0.9,-0.86,0.01641794681955468
-0.88,-0.86,0.061106510970805356
-0.86,-0.86,0.10483138894078614
-0.84,-0.86,0.14690301328393435
-0.8200000000000001,-0.86,0.1866578893519884
-0.8,-0.86,0.2234690590009434
-0.78,-0.86,0.2567559880955085
-0.76,-0.86,0.2859937218792145
-0.74,-0.86,0.31072116382451703
-0.72,-0.86,0.3305483474004807
-0.7,-0.86,0.34516258607792744
-0.6799999999999999,-0.86,0.3543334045827907
-0.6599999999999999,-0.86,0.35791617362886724
-0.64,-0.86,0.35585439080805825
-0.62,-0.86,0.3481805716670971
-0.6,-0.86,0.3350157369179542
-0.5800000000000001,-0.86,0.31656750386891447
-0.56,-0.86,0.2931268121756016
-0.54,-0.86,0.2650633355488096
-0.52,-0.86,0.23281965177925135
-0.5,-0.86,0.19690426302141573
-0.48,-0.86,0.15788357641082715
-0.45999999999999996,-0.86,0.11637297148516292
-0.43999999999999995,-0.86,0.07302709528133404
-0.42000000000000004,-0.86,0.028529538160646392
-0.4,-0.86,-0.016417946819554684
-0.38,-0.86,-0.06110651097080534
-0.36,-0.86,-0.10483138894078609
-0.33999999999999997,-0.86,-0.1469030132839343
-0.31999999999999995,-0.86,-0.18665788935198843
-0.29999999999999993,-0.86,-0.2234690590009434
-0.28,-0.86,-0.2567559880955084
-0.26,-0.86,-0.2859937218792145
-0.24,-0.86,-0.310721163824517
-0.21999999999999997,-0.86,-0.3305483474004807
-0.19999999999999996,-0.86,-0.3451625860779274
-0.17999999999999994,-0.86,-0.3543334045827907
-0.16000000000000003,-0.86,-0.35791617362886724
-0.14,-0.86,-0.3558543908080582
-0.12,-0.86,-0.3481805716670971
-0.09999999999999998,-0.86,-0.33501573691795417
-0.07999999999999996,-0.86,-0.3165675038689145
-0.05999999999999994,-0.86,-0.2931268121756016
-0.040000000000000036,-0.86,-0.2650633355488097
-0.020000000000000018,-0.86,-0.2328196517792513
0.0,-0.86,-0.19690426302141562
0.020000000000000018,-0.86,-0.15788357641082704
0.040000000000000036,-0.86,-0.11637297148516279
0.06000000000000005,-0.86,-0.07302709528133403
0.08000000000000007,-0.86,-0.028529538160646416
0.10000000000000009,-0.86,0.01641794681955464
0.1200000000000001,-0.86,0.06110651097080526
0.14000000000000012,-0.86,0.10483138894078603
0.15999999999999992,-0.86,0.14690301328393432