TITLE = "Solution" 
VARIABLES = "x", "y", "sol" 
ZONE STRANDID=1, SOLUTIONTIME= 0.8100000000000005, I= 101, J =101, DATAPACKING=POINT 
-1.0,-1.0,0.6278036183505477
-0.98,-1.0,0.6657514504605659
-0.96,-1.0,0.693199984496182
-0.94,-1.0,0.7097163406786944
-0.92,-1.0,0.7150400462047122
-0.9,-1.0,0.7090871430578624
-0.88,-1.0,0.691951512076863
-0.86,-1.0,0.6639033923986146
-0.84,-1.0,0.6253851196255773
-0.8200000000000001,-1.0,0.5770041499290826
-0.8,-1.0,0.5195234801026342
-0.78,-1.0,0.4538496146466837
-0.76,-1.0,0.3810182696511367
-0.74,-1.0,0.30217803893391004
-0.72,-1.0,0.2185722800302848
-0.7,-1.0,0.13151950570183085
-0.6799999999999999,-1.0,0.04239259020251439
-0.6599999999999999,-1.0,-0.04740288176840168
-0.64,-1.0,-0.1364507819767213
-0.62,-1.0,-0.22334677184152196
-0.6,-1.0,-0.30672044969348744
-0.5800000000000001,-1.0,-0.38525696282787164
-0.56,-1.0,-0.45771774351710615
-0.54,-1.0,-0.5229600419637496
-0.52,-1.0,-0.5799549481474378
-0.5,-1.0,-0.6278036183505475
-0.48,-1.0,-0.6657514504605658
-0.45999999999999996,-1.0,-0.693199984496182
-0.43999999999999995,-1.0,-0.7097163406786942
-0.42000000000000004,-1.0,-0.7150400462047122
-0.4,-1.0,-0.7090871430578622
-0.38,-1.0,-0.6919515120768632
-0.36,-1.0,-0.6639033923986147
-0.33999999999999997,-1.0,-0.6253851196255772
-0.31999999999999995,-1.0,-0.5770041499290827
-0.29999999999999993,-1.0,-0.5195234801026343
-0.28,-1.0,-0.45384961464668355
-0.26,-1.0,-0.38101826965113667
-0.24,-1.0,-0.30217803893391004
-0.21999999999999997,-1.0,-0.21857228003028487
-0.19999999999999996,-1.0,-0.1315195057018309
-0.17999999999999994,-1.0,-0.04239259020251433
-0.16000000000000003,-1.0,0.04740288176840182
-0.14,-1.0,0.13645078197672128
-0.12,-1.0,0.22334677184152205
-0.09999999999999998,-1.0,0.3067204496934876
-0.07999999999999996,-1.0,0.3852569628278718
-0.05999999999999994,-1.0,0.45771774351710626
-0.040000000000000036,-1.0,0.5229600419637495
-0.020000000000000018,-1.0,0.5799549481474378
0.0,-1.0,0.6278036183505477
0.020000000000000018,-1.0,0.6657514504605662
0.040000000000000036,-1.0,0.693199984496182
0.06000000000000005,-1.0,0.7097163406786946
0.08000000000000007,-1.0,0.7150400462047121
0.10000000000000009,-1.0,0.7090871430578626
0.1200000000000001,-1.0,0.691951512076863
0.14000000000000012,-1.0,0.6639033923986147
0.15999999999999992,-1.0,0.6253851196255773
0.17999999999999994,-1.0,0.5770041499290824
0.19999999999999996,-1.0,0.5195234801026342
0.21999999999999997,-1.0,0.45384961464668366
0.24,-1.0,0.38101826965113667
0.26,-1.0,0.30217803893390993
0.28,-1.0,0.21857228003028498
0.30000000000000004,-1.0,0.13151950570183082
0.32000000000000006,-1.0,0.04239259020251432
0.3400000000000001,-1.0,-0.04740288176840182
0.3600000000000001,-1.0,-0.13645078197672134
0.3800000000000001,-1.0,-0.2233467718415219
0.40000000000000013,-1.0,-0.30672044969348755
0.41999999999999993,-1.0,-0.38525696282787164
0.43999999999999995,-1.0,-0.45771774351710615
0.45999999999999996,-1.0,-0.5229600419637495
0.48,-1.0,-0.5799549481474376
0.5,-1.0,-0.6278036183505475
0.52,-1.0,-0.6657514504605663
0.54,-1.0,-0.6931999844961819
0.56,-1.0,-0.7097163406786946
0.5800000000000001,-1.0,-0.715040046204712
0.6000000000000001,-1.0,-0.7090871430578624
0.6200000000000001,-1.0,-0.691951512076863
0.6400000000000001,-1.0,-0.6639033923986148
0.6600000000000001,-1.0,-0.6253851196255775
0.6799999999999999,-1.0,-0.5770041499290827
0.7,-1.0,-0.519523480102634
0.72,-1.0,-0.4538496146466835
0.74,-1.0,-0.3810182696511366
0.76,-1.0,-0.3021780389339099
0.78,-1.0,-0.21857228003028478
0.8,-1.0,-0.13151950570183077
0.8200000000000001,-1.0,-0.04239259020251422
0.8400000000000001,-1.0,0.047402881768401836
0.8600000000000001,-1.0,0.13645078197672142
0.8800000000000001,-1.0,0.2233467718415219
0.9000000000000001,-1.0,0.3067204496934875
0.9199999999999999,-1.0,0.38525696282787164
0.94,-1.0,0.45771774351710615
0.96,-1.0,0.5229600419637496
0.98,-1.0,0.5799549481474378
1.0,-1.0,0.6278036183505477

-1.0,-0.98,0.6657514504605659
-0.98,-0.98,0.7014726446617727
-0.96,-0.98,0.726131196217217
-0.94,-0.98,0.7393382250385648
-0.92,-0.98,0.7408854483918061
-0.9,-0.98,0.730748465640395
-0.88,-0.98,0.7090871430578611
-0.86,-0.98,0.6762430926411777
-0.84,-0.98,0.6327342846855004
-0.8200000000000001,-0.98,0.5792468790831923
-0.8,-0.98,0.5166244041724293
-0.78,-0.98,0.44585445379140726
-0.76,-0.98,0.3680531123335544
-0.74,-0.98,0.2844473534299293
-0.72,-0.98,0.1963556898421016
-0.7,-0.98,0.10516737972826028
-0.6799999999999999,-0.98,0.01232051721215684
-0.6599999999999999,-0.98,-0.08072064722030281
-0.64,-0.98,-0.172488798825921
-0.62,-0.98,-0.26153669903424054
-0.6,-0.98,-0.3464600092643395
-0.5800000000000001,-0.98,-0.42591943818316225
-0.56,-0.98,-0.49866186312989697
-0.54,-0.98,-0.5635400926089151
-0.52,-0.98,-0.6195309581849567
-0.5,-0.98,-0.6657514504605658
-0.48,-0.98,-0.7014726446617727
-0.45999999999999996,-0.98,-0.7261311962172169
-0.43999999999999995,-0.98,-0.7393382250385647
-0.42000000000000004,-0.98,-0.7408854483918061
-0.4,-0.98,-0.7307484656403951
-0.38,-0.98,-0.7090871430578612
-0.36,-0.98,-0.6762430926411777
-0.33999999999999997,-0.98,-0.6327342846855004
-0.31999999999999995,-0.98,-0.5792468790831923
-0.29999999999999993,-0.98,-0.516624404172429
-0.28,-0.98,-0.4458544537914072
-0.26,-0.98,-0.3680531123335545
-0.24,-0.98,-0.28444735342992933
-0.21999999999999997,-0.98,-0.19635568984210167
-0.19999999999999996,-0.98,-0.10516737972826029
-0.17999999999999994,-0.98,-0.01232051721215673
-0.16000000000000003,-0.98,0.0807206472203028
-0.14,-0.98,0.1724887988259211
-0.12,-0.98,0.2615366990342407
-0.09999999999999998,-0.98,0.3464600092643397
-0.07999999999999996,-0.98,0.42591943818316236
-0.05999999999999994,-0.98,0.4986618631298969
-0.040000000000000036,-0.98,0.5635400926089154
-0.020000000000000018,-0.98,0.619530958184957
0.0,-0.98,0.6657514504605662
0.020000000000000018,-0.98,0.7014726446617728
0.040000000000000036,-0.98,0.7261311962172172
0.06000000000000005,-0.98,0.7393382250385646
0.08000000000000007,-0.98,0.7408854483918065
0.10000000000000009,-0.98,0.7307484656403949
0.1200000000000001,-0.98,0.7090871430578611
0.14000000000000012,-0.98,0.6762430926411779
0.15999999999999992,-0.98,0.6327342846855004
0.17999999999999994,-0.98,0.5792468790831922
0.19999999999999996,-0.98,0.5166244041724293
0.21999999999999997,-0.98,0.4458544537914072
0.24,-0.98,0.36805311233355437
0.26,-0.98,0.28444735342992944
0.28,-0.98,0.1963556898421016
0.30000000000000004,-0.98,0.10516737972826026
0.32000000000000006,-0.98,0.012320517212156715
0.3400000000000001,-0.98,-0.08072064722030285
0.3600000000000001,-0.98,-0.172488798825921
0.3800000000000001,-0.98,-0.2615366990342407
0.40000000000000013,-0.98,-0.3464600092643395
0.41999999999999993,-0.98,-0.42591943818316225
0.43999999999999995,-0.98,-0.4986618631298969
0.45999999999999996,-0.98,-0.563540092608915
0.48,-0.98,-0.6195309581849567
0.5,-0.98,-0.6657514504605663
0.52,-0.98,-0.7014726446617728
0.54,-0.98,-0.7261311962172172
0.56,-0.98,-0.7393382250385645
0.5800000000000001,-0.98,-0.7408854483918063
0.6000000000000001,-0.98,-0.7307484656403949
0.6200000000000001,-0.98,-0.7090871430578612
0.6400000000000001,-0.98,-0.6762430926411779
0.6600000000000001,-0.98,-0.6327342846855005
0.6799999999999999,-0.98,-0.5792468790831921
0.7,-0.98,-0.516624404172429
0.72,-0.98,-0.4458544537914072
0.74,-0.98,-0.36805311233355426
0.76,-0.98,-0.2844473534299292
0.78,-0.98,-0.19635568984210153
0.8,-0.98,-0.10516737972826015
0.8200000000000001,-0.98,-0.012320517212156667
0.8400000000000001,-0.98,0.08072064722030291
0.8600000000000001,-0.98,0.17248879882592097
0.8800000000000001,-0.98,0.26153669903424065
0.9000000000000001,-0.98,0.3464600092643396
0.9199999999999999,-0.98,0.42591943818316225
0.94,-0.98,0.49866186312989697
0.96,-0.98,0.5635400926089151
0.98,-0.98,0.6195309581849567
1.0,-0.98,0.6657514504605659

-1.0,-0.96,0.693199984496182
-0.98,-0.96,0.726131196217217
-0.96,-0.96,0.7476108852041556
-0.94,-0.96,0.7573003039303289
-0.92,-0.96,0.7550466444742471
-0.9,-0.96,0.7408854483918044
-0.88,-0.96,0.715040046204709
-0.86,-0.96,0.6779180353447464
-0.84,-0.96,0.6301048520987926
-0.8200000000000001,-0.96,0.5723545389288472
-0.8,-0.96,0.5055778527719654
-0.78,-0.96,0.4308279018593001
-0.76,-0.96,0.3492835375701998
-0.74,-0.96,0.26223076324174605
-0.72,-0.96,0.17104245312790486
-0.7,-0.96,0.07715670135242775
-0.6799999999999999,-0.96,-0.017945857694556745
-0.6599999999999999,-0.96,-0.11276539984536232
-0.64,-0.96,-0.20580656427782196
-0.62,-0.96,-0.2956020362487385
-0.6,-0.96,-0.3807356875239152
-0.5800000000000001,-0.96,-0.4598649095663646
-0.56,-0.96,-0.5317417872749712
-0.54,-0.96,-0.5952327793511043
-0.52,-0.96,-0.6493365949220434
-0.5,-0.96,-0.693199984496182
-0.48,-0.96,-0.7261311962172169
-0.45999999999999996,-0.96,-0.7476108852041555
-0.43999999999999995,-0.96,-0.7573003039303289
-0.42000000000000004,-0.96,-0.7550466444742471
-0.4,-0.96,-0.7408854483918045
-0.38,-0.96,-0.7150400462047091
-0.36,-0.96,-0.6779180353447465
-0.33999999999999997,-0.96,-0.6301048520987926
-0.31999999999999995,-0.96,-0.5723545389288471
-0.29999999999999993,-0.96,-0.5055778527719653
-0.28,-0.96,-0.4308279018593002
-0.26,-0.96,-0.3492835375701999
-0.24,-0.96,-0.26223076324174616
-0.21999999999999997,-0.96,-0.17104245312790495
-0.19999999999999996,-0.96,-0.07715670135242766
-0.17999999999999994,-0.96,0.01794585769455673
-0.16000000000000003,-0.96,0.1127653998453624
-0.14,-0.96,0.20580656427782204
-0.12,-0.96,0.2956020362487386
-0.09999999999999998,-0.96,0.38073568752391534
-0.07999999999999996,-0.96,0.45986490956636455
-0.05999999999999994,-0.96,0.5317417872749715
-0.040000000000000036,-0.96,0.5952327793511046
-0.020000000000000018,-0.96,0.6493365949220437
0.0,-0.96,0.6931999844961821
0.020000000000000018,-0.96,0.7261311962172172
0.040000000000000036,-0.96,0.7476108852041555
0.06000000000000005,-0.96,0.757300303930329
0.08000000000000007,-0.96,0.755046644474247
0.10000000000000009,-0.96,0.7408854483918044
0.1200000000000001,-0.96,0.7150400462047094
0.14000000000000012,-0.96,0.6779180353447465
0.15999999999999992,-0.96,0.6301048520987925
0.17999999999999994,-0.96,0.5723545389288471
0.19999999999999996,-0.96,0.5055778527719653
0.21999999999999997,-0.96,0.4308279018593001
0.24,-0.96,0.3492835375702
0.26,-0.96,0.26223076324174616
0.28,-0.96,0.17104245312790492
0.30000000000000004,-0.96,0.07715670135242762
0.32000000000000006,-0.96,-0.017945857694556793
0.3400000000000001,-0.96,-0.11276539984536235
0.3600000000000001,-0.96,-0.20580656427782204
0.3800000000000001,-0.96,-0.29560203624873854
0.40000000000000013,-0.96,-0.38073568752391523
0.41999999999999993,-0.96,-0.4598649095663646
0.43999999999999995,-0.96,-0.5317417872749711
0.45999999999999996,-0.96,-0.5952327793511044
0.48,-0.96,-0.6493365949220438
0.5,-0.96,-0.693199984496182
0.52,-0.96,-0.7261311962172172
0.54,-0.96,-0.7476108852041552
0.56,-0.96,-0.7573003039303289
0.5800000000000001,-0.96,-0.7550466444742471
0.6000000000000001,-0.96,-0.7408854483918045
0.6200000000000001,-0.96,-0.7150400462047092
0.6400000000000001,-0.96,-0.6779180353447465
0.6600000000000001,-0.96,-0.6301048520987924
0.6799999999999999,-0.96,-0.5723545389288471
0.7,-0.96,-0.5055778527719653
0.72,-0.96,-0.4308279018593
0.74,-0.96,-0.34928353757019986
0.76,-0.96,-0.262230763241746
0.78,-0.96,-0.17104245312790478
0.8,-0.96,-0.07715670135242754
0.8200000000000001,-0.96,0.01794585769455684
0.8400000000000001,-0.96,0.11276539984536234
0.8600000000000001,-0.96,0.20580656427782207
0.8800000000000001,-0.96,0.29560203624873854
0.9000000000000001,-0.96,0.3807356875239153
0.9199999999999999,-0.96,0.45986490956636467
0.94,-0.96,0.5317417872749713
0.96,-0.96,0.5952327793511044
0.98,-0.96,0.6493365949220434
1.0,-0.96,0.693199984496182

-1.0,-0.94,0.7097163406786944
-0.98,-0.94,0.7393382250385648
-0.96,-0.94,0.7573003039303289
-0.94,-0.94,0.7633193046398377
-0.92,-0.94,0.7573003039303263
-0.9,-0.94,0.7393382250385607
-0.88,-0.94,0.7097163406786896
-0.86,-0.94,0.6689018056623242
-0.84,-0.94,0.6175382895880935
-0.8200000000000001,-0.94,0.5564358257875657
-0.8,-0.94,0.48655803661571817
-0.78,-0.94,0.409006936550758
-0.76,-0.94,0.32500555276749177
-0.74,-0.94,0.23587863726817565
-0.72,-0.94,0.1430317747520724
-0.7,-0.94,0.04792921570508801
-0.6799999999999999,-0.94,-0.04792921570509129
-0.6599999999999999,-0.94,-0.14303177475207576
-0.64,-0.94,-0.23587863726817965
-0.62,-0.94,-0.3250055527674964
-0.6,-0.94,-0.4090069365507634
-0.5800000000000001,-0.94,-0.48655803661572405
-0.56,-0.94,-0.556435825787572
-0.54,-0.94,-0.6175382895880995
-0.52,-0.94,-0.6689018056623296
-0.5,-0.94,-0.7097163406786944
-0.48,-0.94,-0.7393382250385647
-0.45999999999999996,-0.94,-0.7573003039303289
-0.43999999999999995,-0.94,-0.7633193046398375
-0.42000000000000004,-0.94,-0.7573003039303265
-0.4,-0.94,-0.7393382250385608
-0.38,-0.94,-0.7097163406786897
-0.36,-0.94,-0.6689018056623243
-0.33999999999999997,-0.94,-0.6175382895880934
-0.31999999999999995,-0.94,-0.5564358257875657
-0.29999999999999993,-0.94,-0.4865580366157183
-0.28,-0.94,-0.40900693655075826
-0.26,-0.94,-0.325005552767492
-0.24,-0.94,-0.23587863726817582
-0.21999999999999997,-0.94,-0.14303177475207238
-0.19999999999999996,-0.94,-0.04792921570508801
-0.17999999999999994,-0.94,0.04792921570509136
-0.16000000000000003,-0.94,0.1430317747520759
-0.14,-0.94,0.23587863726817979
-0.12,-0.94,0.3250055527674966
-0.09999999999999998,-0.94,0.4090069365507635
-0.07999999999999996,-0.94,0.4865580366157243
-0.05999999999999994,-0.94,0.5564358257875723
-0.040000000000000036,-0.94,0.6175382895880999
-0.020000000000000018,-0.94,0.6689018056623297
0.0,-0.94,0.7097163406786945
0.020000000000000018,-0.94,0.7393382250385646
0.040000000000000036,-0.94,0.757300303930329
0.06000000000000005,-0.94,0.7633193046398375
0.08000000000000007,-0.94,0.7573003039303264
0.10000000000000009,-0.94,0.7393382250385611
0.1200000000000001,-0.94,0.7097163406786897
0.14000000000000012,-0.94,0.6689018056623242
0.15999999999999992,-0.94,0.6175382895880935
0.17999999999999994,-0.94,0.5564358257875657
0.19999999999999996,-0.94,0.4865580366157182
0.21999999999999997,-0.94,0.4090069365507582
0.24,-0.94,0.32500555276749193
0.26,-0.94,0.2358786372681758
0.28,-0.94,0.14303177475207232
0.30000000000000004,-0.94,0.04792921570508796
0.32000000000000006,-0.94,-0.04792921570509136
0.3400000000000001,-0.94,-0.1430317747520759
0.3600000000000001,-0.94,-0.2358786372681797
0.3800000000000001,-0.94,-0.32500555276749643
0.40000000000000013,-0.94,-0.4090069365507634
0.41999999999999993,-0.94,-0.4865580366157239
0.43999999999999995,-0.94,-0.5564358257875722
0.45999999999999996,-0.94,-0.6175382895880998
0.48,-0.94,-0.6689018056623296
0.5,-0.94,-0.7097163406786946
0.52,-0.94,-0.7393382250385644
0.54,-0.94,-0.7573003039303289
0.56,-0.94,-0.7633193046398377
0.5800000000000001,-0.94,-0.7573003039303265
0.6000000000000001,-0.94,-0.7393382250385611
0.6200000000000001,-0.94,-0.7097163406786897
0.6400000000000001,-0.94,-0.6689018056623239
0.6600000000000001,-0.94,-0.6175382895880935
0.6799999999999999,-0.94,-0.5564358257875657
0.7,-0.94,-0.48655803661571817
0.72,-0.94,-0.4090069365507581
0.74,-0.94,-0.32500555276749177
0.76,-0.94,-0.2358786372681756
0.78,-0.94,-0.1430317747520722
0.8,-0.94,-0.04792921570508791
0.8200000000000001,-0.94,0.04792921570509133
0.8400000000000001,-0.94,0.14303177475207587
0.8600000000000001,-0.94,0.23587863726817973
0.8800000000000001,-0.94,0.32500555276749654
0.9000000000000001,-0.94,0.40900693655076353
0.9199999999999999,-0.94,0.48655803661572417
0.94,-0.94,0.5564358257875722
0.96,-0.94,0.6175382895880995
0.98,-0.94,0.6689018056623296
1.0,-0.94,0.7097163406786944

-1.0,-0.92,0.7150400462047123
-0.98,-0.92,0.7408854483918063
-0.96,-0.92,0.7550466444742471
-0.94,-0.92,0.7573003039303262
-0.92,-0.92,0.7476108852041512
-0.9,-0.92,0.7261311962172118
-0.88,-0.92,0.6931999844961761
-0.86,-0.92,0.649336594922037
-0.84,-0.92,0.5952327793510973
-0.8200000000000001,-0.92,0.5317417872749646
-0.8,-0.92,0.4598649095663584
-0.78,-0.92,0.38073568752391
-0.76,-0.92,0.29560203624873405
-0.74,-0.92,0.2058065642778184
-0.72,-0.92,0.11276539984535897
-0.7,-0.92,0.01794585769455353
-0.6799999999999999,-0.92,-0.07715670135243091
-0.6599999999999999,-0.92,-0.17104245312790844
-0.64,-0.92,-0.26223076324175004
-0.62,-0.92,-0.34928353757020447
-0.6,-0.92,-0.43082790185930525
-0.5800000000000001,-0.92,-0.5055778527719708
-0.56,-0.92,-0.5723545389288524
-0.54,-0.92,-0.6301048520987972
-0.52,-0.92,-0.6779180353447503
-0.5,-0.92,-0.7150400462047121
-0.48,-0.92,-0.7408854483918063
-0.45999999999999996,-0.92,-0.755046644474247
-0.43999999999999995,-0.92,-0.7573003039303267
-0.42000000000000004,-0.92,-0.7476108852041515
-0.4,-0.92,-0.7261311962172119
-0.38,-0.92,-0.693199984496176
-0.36,-0.92,-0.6493365949220369
-0.33999999999999997,-0.92,-0.5952327793510973
-0.31999999999999995,-0.92,-0.5317417872749647
-0.29999999999999993,-0.92,-0.4598649095663587
-0.28,-0.92,-0.38073568752391024
-0.26,-0.92,-0.2956020362487342
-0.24,-0.92,-0.2058065642778184
-0.21999999999999997,-0.92,-0.11276539984535895
-0.19999999999999996,-0.92,-0.017945857694553445
-0.17999999999999994,-0.92,0.07715670135243101
-0.16000000000000003,-0.92,0.17104245312790858
-0.14,-0.92,0.2622307632417502
-0.12,-0.92,0.3492835375702046
-0.09999999999999998,-0.92,0.4308279018593054
-0.07999999999999996,-0.92,0.505577852771971
-0.05999999999999994,-0.92,0.5723545389288527
-0.040000000000000036,-0.92,0.6301048520987973
-0.020000000000000018,-0.92,0.6779180353447504
0.0,-0.92,0.7150400462047122
0.020000000000000018,-0.92,0.7408854483918064
0.040000000000000036,-0.92,0.7550466444742469
0.06000000000000005,-0.92,0.7573003039303264
0.08000000000000007,-0.92,0.7476108852041516
0.10000000000000009,-0.92,0.7261311962172118
0.1200000000000001,-0.92,0.6931999844961761
0.14000000000000012,-0.92,0.6493365949220369
0.15999999999999992,-0.92,0.5952327793510973
0.17999999999999994,-0.92,0.5317417872749645
0.19999999999999996,-0.92,0.4598649095663587
0.21999999999999997,-0.92,0.3807356875239102
0.24,-0.92,0.2956020362487342
0.26,-0.92,0.20580656427781835
0.28,-0.92,0.11276539984535888
0.30000000000000004,-0.92,0.017945857694553452
0.32000000000000006,-0.92,-0.07715670135243102
0.3400000000000001,-0.92,-0.17104245312790856
0.3600000000000001,-0.92,-0.26223076324175004
0.3800000000000001,-0.92,-0.3492835375702045
0.40000000000000013,-0.92,-0.4308279018593051
0.41999999999999993,-0.92,-0.5055778527719709
0.43999999999999995,-0.92,-0.5723545389288526
0.45999999999999996,-0.92,-0.6301048520987972
0.48,-0.92,-0.6779180353447506
0.5,-0.92,-0.7150400462047117
0.52,-0.92,-0.7408854483918061
0.54,-0.92,-0.7550466444742471
0.56,-0.92,-0.7573003039303265
0.5800000000000001,-0.92,-0.7476108852041515
0.6000000000000001,-0.92,-0.7261311962172118
0.6200000000000001,-0.92,-0.6931999844961759
0.6400000000000001,-0.92,-0.6493365949220369
0.6600000000000001,-0.92,-0.5952327793510973
0.6799999999999999,-0.92,-0.5317417872749646
0.7,-0.92,-0.45986490956635856
0.72,-0.92,-0.38073568752391007
0.74,-0.92,-0.295602036248734
0.76,-0.92,-0.20580656427781818
0.78,-0.92,-0.11276539984535887
0.8,-0.92,-0.017945857694553452
0.8200000000000001,-0.92,0.07715670135243101
0.8400000000000001,-0.92,0.17104245312790856
0.8600000000000001,-0.92,0.26223076324175015
0.8800000000000001,-0.92,0.34928353757020464
0.9000000000000001,-0.92,0.4308279018593053
0.9199999999999999,-0.92,0.5055778527719709
0.94,-0.92,0.5723545389288524
0.96,-0.92,0.6301048520987972
0.98,-0.92,0.6779180353447503
1.0,-0.92,0.7150400462047123

-1.0,-0.9,0.7090871430578625
-0.98,-0.9,0.7307484656403951
-0.96,-0.9,0.7408854483918041
-0.94,-0.9,0.7393382250385606
-0.92,-0.9,0.7261311962172119
-0.9,-0.9,0.7014726446617666
-0.88,-0.9,0.6657514504605593
-0.86,-0.9,0.6195309581849492
-0.84,-0.9,0.5635400926089078
-0.8200000000000001,-0.9,0.49866186312989
-0.8,-0.9,0.42591943818315653
-0.78,-0.9,0.3464600092643347
-0.76,-0.9,0.26153669903423676
-0.74,-0.9,0.1724887988259175
-0.72,-0.9,0.08072064722029966
-0.7,-0.9,-0.012320517212159824
-0.6799999999999999,-0.9,-0.10516737972826351
-0.6599999999999999,-0.9,-0.19635568984210497
-0.64,-0.9,-0.28444735342993316
-0.62,-0.9,-0.3680531123335588
-0.6,-0.9,-0.4458544537914117
-0.5800000000000001,-0.9,-0.5166244041724335
-0.56,-0.9,-0.5792468790831957
-0.54,-0.9,-0.632734284685503
-0.52,-0.9,-0.6762430926411798
-0.5,-0.9,-0.7090871430578625
-0.48,-0.9,-0.730748465640395
-0.45999999999999996,-0.9,-0.7408854483918046
-0.43999999999999995,-0.9,-0.739338225038561
-0.42000000000000004,-0.9,-0.7261311962172119
-0.4,-0.9,-0.7014726446617665
-0.38,-0.9,-0.6657514504605593
-0.36,-0.9,-0.6195309581849494
-0.33999999999999997,-0.9,-0.5635400926089078
-0.31999999999999995,-0.9,-0.49866186312989047
-0.29999999999999993,-0.9,-0.4259194381831568
-0.28,-0.9,-0.3464600092643349
-0.26,-0.9,-0.26153669903423676
-0.24,-0.9,-0.1724887988259175
-0.21999999999999997,-0.9,-0.08072064722029956
-0.19999999999999996,-0.9,0.0123205172121599
-0.17999999999999994,-0.9,0.1051673797282636
-0.16000000000000003,-0.9,0.19635568984210508
-0.14,-0.9,0.28444735342993327
-0.12,-0.9,0.36805311233355886
-0.09999999999999998,-0.9,0.4458544537914119
-0.07999999999999996,-0.9,0.5166244041724336
-0.05999999999999994,-0.9,0.5792468790831958
-0.040000000000000036,-0.9,0.6327342846855031
-0.020000000000000018,-0.9,0.6762430926411798
0.0,-0.9,0.7090871430578625
0.020000000000000018,-0.9,0.7307484656403948
0.040000000000000036,-0.9,0.7408854483918045
0.06000000000000005,-0.9,0.7393382250385611
0.08000000000000007,-0.9,0.7261311962172118
0.10000000000000009,-0.9,0.7014726446617667
0.1200000000000001,-0.9,0.6657514504605592
0.14000000000000012,-0.9,0.6195309581849494
0.15999999999999992,-0.9,0.5635400926089079
0.17999999999999994,-0.9,0.49866186312989036
0.19999999999999996,-0.9,0.4259194381831567
0.21999999999999997,-0.9,0.34646000926433485
0.24,-0.9,0.26153669903423676
0.26,-0.9,0.17248879882591742
0.28,-0.9,0.08072064722029956
0.30000000000000004,-0.9,-0.012320517212159942
0.32000000000000006,-0.9,-0.10516737972826361
0.3400000000000001,-0.9,-0.196355689842105
0.3600000000000001,-0.9,-0.2844473534299333
0.3800000000000001,-0.9,-0.3680531123335587
0.40000000000000013,-0.9,-0.4458544537914118
0.41999999999999993,-0.9,-0.5166244041724336
0.43999999999999995,-0.9,-0.5792468790831957
0.45999999999999996,-0.9,-0.6327342846855033
0.48,-0.9,-0.6762430926411795
0.5,-0.9,-0.7090871430578624
0.52,-0.9,-0.730748465640395
0.54,-0.9,-0.7408854483918045
0.56,-0.9,-0.739338225038561
0.5800000000000001,-0.9,-0.7261311962172118
0.6000000000000001,-0.9,-0.7014726446617665
0.6200000000000001,-0.9,-0.6657514504605591
0.6400000000000001,-0.9,-0.6195309581849493
0.6600000000000001,-0.9,-0.5635400926089078
0.6799999999999999,-0.9,-0.49866186312989025
0.7,-0.9,-0.4259194381831567
0.72,-0.9,-0.3464600092643346
0.74,-0.9,-0.2615366990342365
0.76,-0.9,-0.17248879882591744
0.78,-0.9,-0.08072064722029955
0.8,-0.9,0.012320517212159956
0.8200000000000001,-0.9,0.1051673797282636
0.8400000000000001,-0.9,0.19635568984210514
0.8600000000000001,-0.9,0.2844473534299333
0.8800000000000001,-0.9,0.3680531123335588
0.9000000000000001,-0.9,0.4458544537914118
0.9199999999999999,-0.9,0.5166244041724335
0.94,-0.9,0.5792468790831958
0.96,-0.9,0.632734284685503
0.98,-0.9,0.67624309264118
1.0,-0.9,0.7090871430578625

-1.0,-0.88,0.6919515120768631
-0.98,-0.88,0.7090871430578609
-0.96,-0.88,0.715040046204709
-0.94,-0.88,0.7097163406786897
-0.92,-0.88,0.6931999844961761
-0.9,-0.88,0.6657514504605593
-0.88,-0.88,0.6278036183505399
-0.86,-0.88,0.57995494814743
-0.84,-0.88,0.5229600419637419
-0.8200000000000001,-0.88,0.4577177435171001
-0.8,-0.88,0.38525696282786653
-0.78,-0.88,0.30672044969348333
-0.76,-0.88,0.22334677184151822
-0.74,-0.88,0.13645078197671812
-0.72,-0.88,0.047402881768398825
-0.7,-0.88,-0.042392590202517316
-0.6799999999999999,-0.88,-0.1315195057018338
-0.6599999999999999,-0.88,-0.21857228003028809
-0.64,-0.88,-0.30217803893391365
-0.62,-0.88,-0.3810182696511404
-0.6,-0.88,-0.4538496146466869
-0.5800000000000001,-0.88,-0.5195234801026366
-0.56,-0.88,-0.5770041499290841
-0.54,-0.88,-0.6253851196255786
-0.52,-0.88,-0.6639033923986155
-0.5,-0.88,-0.6919515120768631
-0.48,-0.88,-0.7090871430578614
-0.45999999999999996,-0.88,-0.7150400462047092
-0.43999999999999995,-0.88,-0.7097163406786896
-0.42000000000000004,-0.88,-0.6931999844961759
-0.4,-0.88,-0.6657514504605593
-0.38,-0.88,-0.6278036183505401
-0.36,-0.88,-0.5799549481474301
-0.33999999999999997,-0.88,-0.5229600419637425
-0.31999999999999995,-0.88,-0.4577177435171004
-0.29999999999999993,-0.88,-0.38525696282786676
-0.28,-0.88,-0.3067204496934834
-0.26,-0.88,-0.2233467718415183
-0.24,-0.88,-0.13645078197671803
-0.21999999999999997,-0.88,-0.04740288176839878
-0.19999999999999996,-0.88,0.042392590202517344
-0.17999999999999994,-0.88,0.13151950570183388
-0.16000000000000003,-0.88,0.2185722800302882
-0.14,-0.88,0.30217803893391376
-0.12,-0.88,0.38101826965114055
-0.09999999999999998,-0.88,0.453849614646687
-0.07999999999999996,-0.88,0.5195234801026368
-0.05999999999999994,-0.88,0.5770041499290843
-0.040000000000000036,-0.88,0.6253851196255785
-0.020000000000000018,-0.88,0.6639033923986156
0.0,-0.88,0.6919515120768629
0.020000000000000018,-0.88,0.7090871430578611
0.040000000000000036,-0.88,0.7150400462047092
0.06000000000000005,-0.88,0.7097163406786897
0.08000000000000007,-0.88,0.6931999844961761
0.10000000000000009,-0.88,0.6657514504605592
0.1200000000000001,-0.88,0.62780361835054
0.14000000000000012,-0.88,0.57995494814743
0.15999999999999992,-0.88,0.5229600419637424
0.17999999999999994,-0.88,0.45771774351710026
0.19999999999999996,-0.88,0.3852569628278667
0.21999999999999997,-0.88,0.30672044969348333
0.24,-0.88,0.2233467718415182
0.26,-0.88,0.13645078197671806
0.28,-0.88,0.04740288176839874
0.30000000000000004,-0.88,-0.04239259020251737
0.32000000000000006,-0.88,-0.13151950570183385
0.3400000000000001,-0.88,-0.2185722800302882
0.3600000000000001,-0.88,-0.3021780389339136
0.3800000000000001,-0.88,-0.38101826965114044
0.40000000000000013,-0.88,-0.45384961464668694
0.41999999999999993,-0.88,-0.5195234801026367
0.43999999999999995,-0.88,-0.5770041499290843
0.45999999999999996,-0.88,-0.6253851196255784
0.48,-0.88,-0.6639033923986154
0.5,-0.88,-0.6919515120768631
0.52,-0.88,-0.709087143057861
0.54,-0.88,-0.7150400462047092
0.56,-0.88,-0.7097163406786896
0.5800000000000001,-0.88,-0.6931999844961759
0.6000000000000001,-0.88,-0.6657514504605591
0.6200000000000001,-0.88,-0.6278036183505399
0.6400000000000001,-0.88,-0.5799549481474301
0.6600000000000001,-0.88,-0.5229600419637422
0.6799999999999999,-0.88,-0.4577177435171002
0.7,-0.88,-0.3852569628278665
0.72,-0.88,-0.30672044969348305
0.74,-0.88,-0.22334677184151824
0.76,-0.88,-0.13645078197671803
0.78,-0.88,-0.0474028817683987
0.8,-0.88,0.04239259020251737
0.8200000000000001,-0.88,0.13151950570183393
0.8400000000000001,-0.88,0.21857228003028828
0.8600000000000001,-0.88,0.30217803893391376
0.8800000000000001,-0.88,0.3810182696511405
0.9000000000000001,-0.88,0.4538496146466868
0.9199999999999999,-0.88,0.5195234801026368
0.94,-0.88,0.5770041499290842
0.96,-0.88,0.6253851196255789
0.98,-0.88,0.6639033923986156
1.0,-0.88,0.6919515120768631

-1.0,-0.86,0.6639033923986145
-0.98,-0.86,0.6762430926411775
-0.96,-0.86,0.6779180353447466
-0.94,-0.86,0.6689018056623242
-0.92,-0.86,0.649336594922037
-0.9,-0.86,0.6195309581849493
-0.88,-0.86,0.57995494814743
-0.86,-0.86,0.5312327021293325
-0.84,-0.86,0.4741325990556224
-0.8200000000000001,-0.86,0.40955514166171864
-0.8,-0.86,0.3385187550274269
-0.78,-0.86,0.2621437254050501
-0.76,-0.86,0.18163453263596482
-0.74,-0.86,0.0982608547839997
-0.72,-0.86,0.013337544553901255
-0.7,-0.86,-0.07179610672127505
-0.6799999999999999,-0.86,-0.15579749050454178
-0.6599999999999999,-0.86,-0.2373418547936424
-0.64,-0.86,-0.31514319625149534
-0.62,-0.86,-0.3879745412470417
-0.6,-0.86,-0.4546872959623653
-0.5800000000000001,-0.86,-0.5142293604033379
-0.56,-0.86,-0.5656617206450198
-0.54,-0.86,-0.608173257642197
-0.52,-0.86,-0.6410935390612623
-0.5,-0.86,-0.6639033923986147
-0.48,-0.86,-0.6762430926411778
-0.45999999999999996,-0.86,-0.6779180353447464
-0.43999999999999995,-0.86,-0.668901805662324
-0.42000000000000004,-0.86,-0.649336594922037
-0.4,-0.86,-0.6195309581849494
-0.38,-0.86,-0.57995494814743
-0.36,-0.86,-0.5312327021293333
-0.33999999999999997,-0.86,-0.4741325990556227
-0.31999999999999995,-0.86,-0.4095551416617188
-0.29999999999999993,-0.86,-0.33851875502742684
-0.28,-0.86,-0.2621437254050502
-0.26,-0.86,-0.18163453263596474
-0.24,-0.86,-0.09826085478399968
-0.21999999999999997,-0.86,-0.013337544553901248
-0.19999999999999996,-0.86,0.07179610672127512
-0.17999999999999994,-0.86,0.15579749050454184
-0.16000000000000003,-0.86,0.23734185479364245
-0.14,-0.86,0.3151431962514955
-0.12,-0.86,0.38797454124704184
-0.09999999999999998,-0.86,0.45468729596236557
-0.07999999999999996,-0.86,0.514229360403338
-0.05999999999999994,-0.86,0.5656617206450198
-0.040000000000000036,-0.86,0.608173257642197
-0.020000000000000018,-0.86,0.6410935390612621
0.0,-0.86,0.6639033923986146
0.020000000000000018,-0.86,0.6762430926411777
0.040000000000000036,-0.86,0.6779180353447465
0.06000000000000005,-0.86,0.6689018056623242
0.08000000000000007,-0.86,0.6493365949220368
0.10000000000000009,-0.86,0.6195309581849493
0.1200000000000001,-0.86,0.5799549481474299
0.14000000000000012,-0.86,0.5312327021293329
0.15999999999999992,-0.86,0.4741325990556225
0.17999999999999994,-0.86,0.4095551416617188
0.19999999999999996,-0.86,0.33851875502742684
0.21999999999999997,-0.86,0.2621437254050501
0.24,-0.86,0.1816345326359648
0.26,-0.86,0.09826085478399962
0.28,-0.86,0.013337544553901213
0.30000000000000004,-0.86,-0.07179610672127514
0.32000000000000006,-0.86,-0.15579749050454186
0.3400000000000001,-0.86,-0.23734185479364237
0.3600000000000001,-0.86,-0.3151431962514954
0.3800000000000001,-0.86,-0.38797454124704184
0.40000000000000013,-0.86,-0.4546872959623654
0.41999999999999993,-0.86,-0.514229360403338