TITLE = "Solution" 
VARIABLES = "x", "y", "sol" 
ZONE STRANDID=1, SOLUTIONTIME= 0.09999999999999996, I= 101, J =101, DATAPACKING=POINT 
-1.0,-1.0,0.30743499755901504
-0.98,-1.0,0.24541128653204272
-0.96,-1.0,0.17951729291486326
-0.94,-1.0,0.11079220434998367
-0.92,-1.0,0.04031985653844988
-0.9,-1.0,-0.030788359496610067
-0.88,-1.0,-0.10141102471033393
-0.86,-1.0,-0.17043437748436607
-0.84,-1.0,-0.2367698783129076
-0.8200000000000001,-1.0,-0.2993713767209851
-0.8,-1.0,-0.3572516096823808
-0.78,-1.0,-0.40949777134731813
-0.76,-1.0,-0.45528590853599704
-0.74,-1.0,-0.49389391497244456
-0.72,-1.0,-0.5247129193318527
-0.7,-1.0,-0.5472568875050929
-0.6799999999999999,-1.0,-0.5611702876469595
-0.6599999999999999,-1.0,-0.5662336971257528
-0.64,-1.0,-0.5623672629492579
-0.62,-1.0,-0.5496319610941339
-0.6,-1.0,-0.5282286348783372
-0.5800000000000001,-1.0,-0.49849482754201757
-0.56,-1.0,-0.46089945898898477
-0.54,-1.0,-0.4160354306397045
-0.52,-1.0,-0.36461027502171633
-0.5,-1.0,-0.30743499755901504
-0.48,-1.0,-0.24541128653204253
-0.45999999999999996,-1.0,-0.17951729291486312
-0.43999999999999995,-1.0,-0.11079220434998352
-0.42000000000000004,-1.0,-0.04031985653844982
-0.4,-1.0,0.030788359496610067
-0.38,-1.0,0.10141102471033389
-0.36,-1.0,0.170434377484366
-0.33999999999999997,-1.0,0.23676987831290755
-0.31999999999999995,-1.0,0.29937137672098507
-0.29999999999999993,-1.0,0.3572516096823807
-0.28,-1.0,0.4094977713473181
-0.26,-1.0,0.45528590853599693
-0.24,-1.0,0.49389391497244445
-0.21999999999999997,-1.0,0.5247129193318527
-0.19999999999999996,-1.0,0.547256887505093
-0.17999999999999994,-1.0,0.5611702876469596
-0.16000000000000003,-1.0,0.5662336971257528
-0.14,-1.0,0.5623672629492578
-0.12,-1.0,0.5496319610941341
-0.09999999999999998,-1.0,0.5282286348783372
-0.07999999999999996,-1.0,0.49849482754201757
-0.05999999999999994,-1.0,0.4608994589889848
-0.040000000000000036,-1.0,0.4160354306397045
-0.020000000000000018,-1.0,0.3646102750217163
0.0,-1.0,0.3074349975590149
0.020000000000000018,-1.0,0.2454112865320424
0.040000000000000036,-1.0,0.17951729291486299
0.06000000000000005,-1.0,0.11079220434998349
0.08000000000000007,-1.0,0.04031985653844983
0.10000000000000009,-1.0,-0.030788359496609994
0.1200000000000001,-1.0,-0.10141102471033384
0.14000000000000012,-1.0,-0.170434377484366
0.15999999999999992,-1.0,-0.2367698783129076
0.17999999999999994,-1.0,-0.2993713767209852
0.19999999999999996,-1.0,-0.3572516096823809
0.21999999999999997,-1.0,-0.40949777134731813
0.24,-1.0,-0.45528590853599693
0.26,-1.0,-0.49389391497244434
0.28,-1.0,-0.5247129193318526
0.30000000000000004,-1.0,-0.5472568875050929
0.32000000000000006,-1.0,-0.5611702876469595
0.3400000000000001,-1.0,-0.5662336971257528
0.3600000000000001,-1.0,-0.5623672629492578
0.3800000000000001,-1.0,-0.5496319610941339
0.40000000000000013,-1.0,-0.528228634878337
0.41999999999999993,-1.0,-0.4984948275420175
0.43999999999999995,-1.0,-0.46089945898898466
0.45999999999999996,-1.0,-0.4160354306397043
0.48,-1.0,-0.36461027502171617
0.5,-1.0,-0.3074349975590149
0.52,-1.0,-0.24541128653204258
0.54,-1.0,-0.1795172929148632
0.56,-1.0,-0.11079220434998364
0.5800000000000001,-1.0,-0.04031985653844995
0.6000000000000001,-1.0,0.03078835949660993
0.6200000000000001,-1.0,0.10141102471033382
0.6400000000000001,-1.0,0.17043437748436593
0.6600000000000001,-1.0,0.23676987831290752
0.6799999999999999,-1.0,0.29937137672098507
0.7,-1.0,0.35725160968238073
0.72,-1.0,0.4094977713473181
0.74,-1.0,0.455285908535997
0.76,-1.0,0.49389391497244445
0.78,-1.0,0.5247129193318526
0.8,-1.0,0.5472568875050929
0.8200000000000001,-1.0,0.5611702876469596
0.8400000000000001,-1.0,0.5662336971257528
0.8600000000000001,-1.0,0.5623672629492579
0.8800000000000001,-1.0,0.5496319610941339
0.9000000000000001,-1.0,0.5282286348783372
0.9199999999999999,-1.0,0.4984948275420176
0.94,-1.0,0.4608994589889847
0.96,-1.0,0.41603543063970433
0.98,-1.0,0.3646102750217163
1.0,-1.0,0.30743499755901504

-1.0,-0.98,0.2454112865320427
-0.98,-0.98,0.19403009725699077
-0.96,-0.98,0.13958893744023432
-0.94,-0.98,0.08294637669365584
-0.92,-0.98,0.02499570203685469
-0.9,-0.98,-0.03334916977277626
-0.88,-0.98,-0.09116810525326212
-0.86,-0.98,-0.14754926525271775
-0.84,-0.98,-0.20160348519747928
-0.8200000000000001,-0.98,-0.2524782977485921
-0.8,-0.98,-0.2993713767209852
-0.78,-0.98,-0.34154319024669655
-0.76,-0.98,-0.37832866363420514
-0.74,-0.98,-0.40914766799361346
-0.72,-0.98,-0.4335141692157926
-0.7,-0.98,-0.45104389302062686
-0.6799999999999999,-0.98,-0.46146038519196436
-0.6599999999999999,-0.98,-0.46459937142575236
-0.64,-0.98,-0.46041134803394435
-0.62,-0.98,-0.44896236264723355
-0.6,-0.98,-0.43043297260446023
-0.5800000000000001,-0.98,-0.40511539745552033
-0.56,-0.98,-0.37340891048449887
-0.54,-0.98,-0.335813541931466
-0.52,-0.98,-0.29292219321688767
-0.5,-0.98,-0.2454112865320426
-0.48,-0.98,-0.1940300972569907
-0.45999999999999996,-0.98,-0.13958893744023412
-0.43999999999999995,-0.98,-0.08294637669365573
-0.42000000000000004,-0.98,-0.02499570203685464
-0.4,-0.98,0.033349169772776265
-0.38,-0.98,0.09116810525326209
-0.36,-0.98,0.1475492652527177
-0.33999999999999997,-0.98,0.20160348519747925
-0.31999999999999995,-0.98,0.25247829774859204
-0.29999999999999993,-0.98,0.2993713767209852
-0.28,-0.98,0.3415431902466964
-0.26,-0.98,0.37832866363420503
-0.24,-0.98,0.40914766799361335
-0.21999999999999997,-0.98,0.4335141692157926
-0.19999999999999996,-0.98,0.45104389302062686
-0.17999999999999994,-0.98,0.46146038519196436
-0.16000000000000003,-0.98,0.4645993714257522
-0.14,-0.98,0.46041134803394446
-0.12,-0.98,0.4489623626472335
-0.09999999999999998,-0.98,0.43043297260446034
-0.07999999999999996,-0.98,0.4051153974555204
-0.05999999999999994,-0.98,0.37340891048449887
-0.040000000000000036,-0.98,0.335813541931466
-0.020000000000000018,-0.98,0.29292219321688767
0.0,-0.98,0.24541128653204256
0.020000000000000018,-0.98,0.19403009725699055
0.040000000000000036,-0.98,0.13958893744023404
0.06000000000000005,-0.98,0.08294637669365568
0.08000000000000007,-0.98,0.02499570203685467
0.10000000000000009,-0.98,-0.0333491697727762
0.1200000000000001,-0.98,-0.09116810525326204
0.14000000000000012,-0.98,-0.1475492652527177
0.15999999999999992,-0.98,-0.2016034851974793
0.17999999999999994,-0.98,-0.25247829774859215
0.19999999999999996,-0.98,-0.2993713767209853
0.21999999999999997,-0.98,-0.3415431902466965
0.24,-0.98,-0.37832866363420503
0.26,-0.98,-0.40914766799361324
0.28,-0.98,-0.4335141692157926
0.30000000000000004,-0.98,-0.4510438930206268
0.32000000000000006,-0.98,-0.46146038519196436
0.3400000000000001,-0.98,-0.4645993714257522
0.3600000000000001,-0.98,-0.4604113480339444
0.3800000000000001,-0.98,-0.4489623626472335
0.40000000000000013,-0.98,-0.43043297260446023
0.41999999999999993,-0.98,-0.4051153974555203
0.43999999999999995,-0.98,-0.37340891048449876
0.45999999999999996,-0.98,-0.3358135419314659
0.48,-0.98,-0.2929221932168875
0.5,-0.98,-0.24541128653204258
0.52,-0.98,-0.19403009725699072
0.54,-0.98,-0.1395889374402342
0.56,-0.98,-0.08294637669365584
0.5800000000000001,-0.98,-0.024995702036854753
0.6000000000000001,-0.98,0.03334916977277617
0.6200000000000001,-0.98,0.091168105253262
0.6400000000000001,-0.98,0.1475492652527176
0.6600000000000001,-0.98,0.2016034851974792
0.6799999999999999,-0.98,0.25247829774859204
0.7,-0.98,0.29937137672098524
0.72,-0.98,0.3415431902466965
0.74,-0.98,0.37832866363420503
0.76,-0.98,0.4091476679936133
0.78,-0.98,0.43351416921579256
0.8,-0.98,0.4510438930206268
0.8200000000000001,-0.98,0.4614603851919643
0.8400000000000001,-0.98,0.46459937142575225
0.8600000000000001,-0.98,0.4604113480339444
0.8800000000000001,-0.98,0.44896236264723355
0.9000000000000001,-0.98,0.43043297260446034
0.9199999999999999,-0.98,0.4051153974555204
0.94,-0.98,0.3734089104844988
0.96,-0.98,0.3358135419314659
0.98,-0.98,0.29292219321688767
1.0,-0.98,0.2454112865320427

-1.0,-0.96,0.17951729291486326
-0.98,-0.96,0.13958893744023432
-0.96,-0.96,0.09745918103578338
-0.94,-0.96,0.053792435127105305
-0.92,-0.96,0.009277350382429633
-0.9,-0.96,-0.03538404371979747
-0.88,-0.96,-0.07948741031516014
-0.86,-0.96,-0.1223372129663754
-0.84,-0.96,-0.16325768468840227
-0.8200000000000001,-0.96,-0.20160348519747934
-0.8,-0.96,-0.2367698783129078
-0.78,-0.96,-0.2682022690078722
-0.76,-0.96,-0.2954049497043129
-0.74,-0.96,-0.3179489178775532
-0.72,-0.96,-0.33547864168238745
-0.7,-0.96,-0.3477176669026639
-0.6799999999999999,-0.96,-0.3544729767994196
-0.6599999999999999,-0.96,-0.3556380361001558
-0.64,-0.96,-0.35119447112372776
-0.62,-0.96,-0.34121235954427054
-0.6,-0.96,-0.3258491252244166
-0.5800000000000001,-0.96,-0.3053470555469414
-0.56,-0.96,-0.2800294803980016
-0.54,-0.96,-0.25029567306168204
-0.52,-0.96,-0.2166145534417922
-0.5,-0.96,-0.17951729291486326
-0.48,-0.96,-0.13958893744023415
-0.45999999999999996,-0.96,-0.09745918103578326
-0.43999999999999995,-0.96,-0.05379243512710523
-0.42000000000000004,-0.96,-0.009277350382429592
-0.4,-0.96,0.03538404371979745
-0.38,-0.96,0.07948741031516011
-0.36,-0.96,0.12233721296637537
-0.33999999999999997,-0.96,0.1632576846884022
-0.31999999999999995,-0.96,0.20160348519747934
-0.29999999999999993,-0.96,0.23676987831290772
-0.28,-0.96,0.26820226900787214
-0.26,-0.96,0.2954049497043128
-0.24,-0.96,0.31794891787755314
-0.21999999999999997,-0.96,0.3354786416823875
-0.19999999999999996,-0.96,0.3477176669026639
-0.17999999999999994,-0.96,0.35447297679941947
-0.16000000000000003,-0.96,0.3556380361001559
-0.14,-0.96,0.35119447112372776
-0.12,-0.96,0.3412123595442706
-0.09999999999999998,-0.96,0.32584912522441656
-0.07999999999999996,-0.96,0.3053470555469414
-0.05999999999999994,-0.96,0.2800294803980016
-0.040000000000000036,-0.96,0.25029567306168204
-0.020000000000000018,-0.96,0.21661455344179215
0.0,-0.96,0.17951729291486315
0.020000000000000018,-0.96,0.1395889374402341
0.040000000000000036,-0.96,0.09745918103578317
0.06000000000000005,-0.96,0.05379243512710522
0.08000000000000007,-0.96,0.00927735038242962
0.10000000000000009,-0.96,-0.0353840437197974
0.1200000000000001,-0.96,-0.07948741031516007
0.14000000000000012,-0.96,-0.12233721296637537
0.15999999999999992,-0.96,-0.16325768468840227
0.17999999999999994,-0.96,-0.2016034851974794
0.19999999999999996,-0.96,-0.2367698783129078
0.21999999999999997,-0.96,-0.26820226900787214
0.24,-0.96,-0.2954049497043128
0.26,-0.96,-0.3179489178775532
0.28,-0.96,-0.33547864168238745
0.30000000000000004,-0.96,-0.3477176669026638
0.32000000000000006,-0.96,-0.35447297679941947
0.3400000000000001,-0.96,-0.3556380361001559
0.3600000000000001,-0.96,-0.35119447112372776
0.3800000000000001,-0.96,-0.34121235954427054
0.40000000000000013,-0.96,-0.32584912522441656
0.41999999999999993,-0.96,-0.30534705554694136
0.43999999999999995,-0.96,-0.28002948039800146
0.45999999999999996,-0.96,-0.2502956730616819
0.48,-0.96,-0.21661455344179212
0.5,-0.96,-0.17951729291486324
0.52,-0.96,-0.1395889374402342
0.54,-0.96,-0.09745918103578333
0.56,-0.96,-0.05379243512710532
0.5800000000000001,-0.96,-0.009277350382429668
0.6000000000000001,-0.96,0.035384043719797365
0.6200000000000001,-0.96,0.07948741031516003
0.6400000000000001,-0.96,0.12233721296637531
0.6600000000000001,-0.96,0.16325768468840218
0.6799999999999999,-0.96,0.20160348519747934
0.7,-0.96,0.23676987831290774
0.72,-0.96,0.26820226900787214
0.74,-0.96,0.29540494970431286
0.76,-0.96,0.31794891787755314
0.78,-0.96,0.3354786416823874
0.8,-0.96,0.3477176669026638
0.8200000000000001,-0.96,0.35447297679941947
0.8400000000000001,-0.96,0.3556380361001559
0.8600000000000001,-0.96,0.3511944711237278
0.8800000000000001,-0.96,0.3412123595442706
0.9000000000000001,-0.96,0.32584912522441667
0.9199999999999999,-0.96,0.3053470555469414
0.94,-0.96,0.2800294803980015
0.96,-0.96,0.250295673061682
0.98,-0.96,0.21661455344179217
1.0,-0.96,0.17951729291486326

-1.0,-0.94,0.11079220434998367
-0.98,-0.94,0.08294637669365584
-0.96,-0.94,0.05379243512710531
-0.94,-0.94,0.02379015472455715
-0.92,-0.94,-0.006587310629546886
-0.9,-0.94,-0.036860890159954314
-0.88,-0.94,-0.06655315143291078
-0.86,-0.94,-0.09519582975084465
-0.84,-0.94,-0.1223372129663754
-0.8200000000000001,-0.94,-0.1475492652527178
-0.8,-0.94,-0.17043437748436618
-0.78,-0.94,-0.19063163777052408
-0.76,-0.94,-0.20782252325122014
-0.74,-0.94,-0.2217359233930868
-0.72,-0.94,-0.23215241556442429
-0.7,-0.94,-0.23890772546118
-0.6799999999999999,-0.94,-0.24189531781085527
-0.6599999999999999,-0.94,-0.24106807649739476
-0.64,-0.94,-0.2364390476104818
-0.62,-0.94,-0.2280812337009107
-0.6,-0.94,-0.2161264424867515
-0.5800000000000001,-0.94,-0.20076320816689763
-0.56,-0.94,-0.18223381812412442
-0.54,-0.94,-0.16083049190832757
-0.52,-0.94,-0.13689077275965744
-0.5,-0.94,-0.11079220434998359
-0.48,-0.94,-0.08294637669365575
-0.45999999999999996,-0.94,-0.05379243512710524
-0.43999999999999995,-0.94,-0.023790154724557096
-0.42000000000000004,-0.94,0.006587310629546898
-0.4,-0.94,0.0368608901599543
-0.38,-0.94,0.06655315143291077
-0.36,-0.94,0.09519582975084462
-0.33999999999999997,-0.94,0.1223372129663754
-0.31999999999999995,-0.94,0.14754926525271775
-0.29999999999999993,-0.94,0.17043437748436616
-0.28,-0.94,0.19063163777052397
-0.26,-0.94,0.2078225232512201
-0.24,-0.94,0.22173592339308676
-0.21999999999999997,-0.94,0.23215241556442434
-0.19999999999999996,-0.94,0.23890772546117994
-0.17999999999999994,-0.94,0.24189531781085524
-0.16000000000000003,-0.94,0.24106807649739476
-0.14,-0.94,0.2364390476104818
-0.12,-0.94,0.22808123370091068
-0.09999999999999998,-0.94,0.2161264424867515
-0.07999999999999996,-0.94,0.20076320816689763
-0.05999999999999994,-0.94,0.18223381812412442
-0.040000000000000036,-0.94,0.16083049190832757
-0.020000000000000018,-0.94,0.1368907727596574
0.0,-0.94,0.11079220434998355
0.020000000000000018,-0.94,0.08294637669365566
0.040000000000000036,-0.94,0.053792435127105194
0.06000000000000005,-0.94,0.02379015472455709
0.08000000000000007,-0.94,-0.006587310629546863
0.10000000000000009,-0.94,-0.03686089015995426
0.1200000000000001,-0.94,-0.06655315143291073
0.14000000000000012,-0.94,-0.0951958297508446
0.15999999999999992,-0.94,-0.12233721296637542
0.17999999999999994,-0.94,-0.1475492652527178
0.19999999999999996,-0.94,-0.17043437748436618
0.21999999999999997,-0.94,-0.19063163777052403
0.24,-0.94,-0.20782252325122014
0.26,-0.94,-0.22173592339308673
0.28,-0.94,-0.23215241556442423
0.30000000000000004,-0.94,-0.2389077254611799
0.32000000000000006,-0.94,-0.24189531781085527
0.3400000000000001,-0.94,-0.24106807649739476
0.3600000000000001,-0.94,-0.2364390476104818
0.3800000000000001,-0.94,-0.22808123370091068
0.40000000000000013,-0.94,-0.2161264424867515
0.41999999999999993,-0.94,-0.20076320816689763
0.43999999999999995,-0.94,-0.1822338181241243
0.45999999999999996,-0.94,-0.1608304919083275
0.48,-0.94,-0.13689077275965736
0.5,-0.94,-0.1107922043499836
0.52,-0.94,-0.08294637669365579
0.54,-0.94,-0.05379243512710529
0.56,-0.94,-0.023790154724557148
0.5800000000000001,-0.94,0.006587310629546832
0.6000000000000001,-0.94,0.03686089015995424
0.6200000000000001,-0.94,0.06655315143291071
0.6400000000000001,-0.94,0.09519582975084458
0.6600000000000001,-0.94,0.12233721296637537
0.6799999999999999,-0.94,0.14754926525271778
0.7,-0.94,0.17043437748436618
0.72,-0.94,0.19063163777052403
0.74,-0.94,0.20782252325122008
0.76,-0.94,0.22173592339308668
0.78,-0.94,0.23215241556442423
0.8,-0.94,0.2389077254611799
0.8200000000000001,-0.94,0.2418953178108553
0.8400000000000001,-0.94,0.24106807649739476
0.8600000000000001,-0.94,0.23643904761048185
0.8800000000000001,-0.94,0.22808123370091077
0.9000000000000001,-0.94,0.21612644248675156
0.9199999999999999,-0.94,0.20076320816689763
0.94,-0.94,0.18223381812412442
0.96,-0.94,0.16083049190832752
0.98,-0.94,0.13689077275965741
1.0,-0.94,0.11079220434998369

-1.0,-0.92,0.04031985653844991
-0.98,-0.92,0.024995702036854694
-0.96,-0.92,0.009277350382429623
-0.94,-0.92,-0.006587310629546889
-0.92,-0.92,-0.022348085817826813
-0.9,-0.92,-0.03775641834266022
-0.88,-0.92,-0.0525693095956388
-0.86,-0.92,-0.06655315143291074
-0.84,-0.92,-0.0794874103151601
-0.8200000000000001,-0.92,-0.0911681052532621
-0.8,-0.92,-0.10141102471033395
-0.78,-0.92,-0.11005463172771406
-0.76,-0.92,-0.11696261145929782
-0.74,-0.92,-0.12202602093809108
-0.72,-0.92,-0.12516500717187912
-0.7,-0.92,-0.12633006647261552
-0.6799999999999999,-0.92,-0.12550282515915506
-0.6599999999999999,-0.92,-0.122696329321181
-0.64,-0.92,-0.11795483907457754
-0.62,-0.92,-0.11135313055296259
-0.6,-0.92,-0.10299531664339157
-0.5800000000000001,-0.92,-0.09301320506393436
-0.56,-0.92,-0.08156421967722349
-0.54,-0.92,-0.06882891782209972
-0.52,-0.92,-0.055008142816518876
-0.5,-0.92,-0.04031985653844985
-0.48,-0.92,-0.024995702036854625
-0.45999999999999996,-0.92,-0.009277350382429574
-0.43999999999999995,-0.92,0.006587310629546905
-0.42000000000000004,-0.92,0.0223480858178268
-0.4,-0.92,0.03775641834266019
-0.38,-0.92,0.05256930959563877
-0.36,-0.92,0.06655315143291071
-0.33999999999999997,-0.92,0.07948741031516007
-0.31999999999999995,-0.92,0.09116810525326208
-0.29999999999999993,-0.92,0.1014110247103339
-0.28,-0.92,0.11005463172771404
-0.26,-0.92,0.11696261145929779
-0.24,-0.92,0.12202602093809108
-0.21999999999999997,-0.92,0.1251650071718791
-0.19999999999999996,-0.92,0.12633006647261555
-0.17999999999999994,-0.92,0.12550282515915506
-0.16000000000000003,-0.92,0.12269632932118099
-0.14,-0.92,0.11795483907457754
-0.12,-0.92,0.11135313055296261
-0.09999999999999998,-0.92,0.1029953166433916
-0.07999999999999996,-0.92,0.09301320506393437
-0.05999999999999994,-0.92,0.08156421967722349
-0.040000000000000036,-0.92,0.06882891782209968
-0.020000000000000018,-0.92,0.05500814281651887
0.0,-0.92,0.040319856538449786
0.020000000000000018,-0.92,0.024995702036854583
0.040000000000000036,-0.92,0.009277350382429557
0.06000000000000005,-0.92,-0.006587310629546884
0.08000000000000007,-0.92,-0.02234808581782676
0.10000000000000009,-0.92,-0.037756418342660164
0.1200000000000001,-0.92,-0.05256930959563874
0.14000000000000012,-0.92,-0.06655315143291071
0.15999999999999992,-0.92,-0.07948741031516011
0.17999999999999994,-0.92,-0.09116810525326212
0.19999999999999996,-0.92,-0.10141102471033395
0.21999999999999997,-0.92,-0.11005463172771404
0.24,-0.92,-0.11696261145929776
0.26,-0.92,-0.12202602093809102
0.28,-0.92,-0.12516500717187906
0.30000000000000004,-0.92,-0.12633006647261555
0.32000000000000006,-0.92,-0.1255028251591551
0.3400000000000001,-0.92,-0.12269632932118102
0.3600000000000001,-0.92,-0.11795483907457754
0.3800000000000001,-0.92,-0.11135313055296261
0.40000000000000013,-0.92,-0.10299531664339158
0.41999999999999993,-0.92,-0.09301320506393432
0.43999999999999995,-0.92,-0.08156421967722347
0.45999999999999996,-0.92,-0.06882891782209964
0.48,-0.92,-0.055008142816518876
0.5,-0.92,-0.040319856538449855
0.52,-0.92,-0.024995702036854674
0.54,-0.92,-0.009277350382429616
0.56,-0.92,0.006587310629546858
0.5800000000000001,-0.92,0.02234808581782677
0.6000000000000001,-0.92,0.03775641834266017
0.6200000000000001,-0.92,0.052569309595638734
0.6400000000000001,-0.92,0.06655315143291071
0.6600000000000001,-0.92,0.0794874103151601
0.6799999999999999,-0.92,0.0911681052532621
0.7,-0.92,0.10141102471033395
0.72,-0.92,0.11005463172771404
0.74,-0.92,0.11696261145929777
0.76,-0.92,0.12202602093809102
0.78,-0.92,0.12516500717187906
0.8,-0.92,0.12633006647261555
0.8200000000000001,-0.92,0.1255028251591551
0.8400000000000001,-0.92,0.12269632932118102
0.8600000000000001,-0.92,0.11795483907457759
0.8800000000000001,-0.92,0.11135313055296264
0.9000000000000001,-0.92,0.10299531664339158
0.9199999999999999,-0.92,0.09301320506393437
0.94,-0.92,0.08156421967722347
0.96,-0.92,0.06882891782209968
0.98,-0.92,0.055008142816518904
1.0,-0.92,0.04031985653844991

-1.0,-0.9,-0.030788359496610046
-0.98,-0.9,-0.03334916977277627
-0.96,-0.9,-0.03538404371979746
-0.94,-0.9,-0.036860890159954314
-0.92,-0.9,-0.03775641834266022
-0.9,-0.9,-0.038056505253511286
-0.88,-0.9,-0.03775641834266015
-0.86,-0.9,-0.03686089015995421
-0.84,-0.9,-0.03538404371979735
-0.8200000000000001,-0.9,-0.03334916977277615
-0.8,-0.9,-0.03078835949660992
-0.78,-0.9,-0.02774199839910768
-0.76,-0.9,-0.02425812941458492
-0.74,-0.9,-0.02039169523809007
-0.72,-0.9,-0.01620367184628224
-0.7,-0.9,-0.011760106869854195
-0.6799999999999999,-0.9,-0.007131077982941221
-0.6599999999999999,-0.9,-0.002389587736337774
-0.64,-0.9,0.002389587736338253
-0.62,-0.9,0.007131077982941693
-0.6,-0.9,0.011760106869854625
-0.5800000000000001,-0.9,0.01620367184628265
-0.56,-0.9,0.020391695238090396
-0.54,-0.9,0.024258129414585203
-0.52,-0.9,0.027741998399107876
-0.5,-0.9,0.0307883594966101
-0.48,-0.9,0.03334916977277631
-0.45999999999999996,-0.9,0.035384043719797476
-0.43999999999999995,-0.9,0.03686089015995429
-0.42000000000000004,-0.9,0.037756418342660185
-0.4,-0.9,0.038056505253511244
-0.38,-0.9,0.03775641834266013
-0.36,-0.9,0.036860890159954196
-0.33999999999999997,-0.9,0.03538404371979734
-0.31999999999999995,-0.9,0.03334916977277614
-0.29999999999999993,-0.9,0.03078835949660991
-0.28,-0.9,0.027741998399107674
-0.26,-0.9,0.024258129414584904
-0.24,-0.9,0.02039169523809007
-0.21999999999999997,-0.9,0.016203671846282262
-0.19999999999999996,-0.9,0.011760106869854195
-0.17999999999999994,-0.9,0.007131077982941214
-0.16000000000000003,-0.9,0.00238958773633776
-0.14,-0.9,-0.002389587736338253
-0.12,-0.9,-0.007131077982941651
-0.09999999999999998,-0.9,-0.011760106869854604
-0.07999999999999996,-0.9,-0.016203671846282623
-0.05999999999999994,-0.9,-0.020391695238090417
-0.040000000000000036,-0.9,-0.024258129414585203
-0.020000000000000018,-0.9,-0.02774199839910791
0.0,-0.9,-0.030788359496610143
0.020000000000000018,-0.9,-0.033349169772776334
0.040000000000000036,-0.9,-0.035384043719797476
0.06000000000000005,-0.9,-0.03686089015995425
0.08000000000000007,-0.9,-0.03775641834266015
0.10000000000000009,-0.9,-0.038056505253511216
0.1200000000000001,-0.9,-0.03775641834266012
0.14000000000000012,-0.9,-0.036860890159954224
0.15999999999999992,-0.9,-0.03538404371979738
0.17999999999999994,-0.9,-0.03334916977277618
0.19999999999999996,-0.9,-0.030788359496609928
0.21999999999999997,-0.9,-0.027741998399107633
0.24,-0.9,-0.02425812941458486
0.26,-0.9,-0.020391695238090035
0.28,-0.9,-0.01620367184628225
0.30000000000000004,-0.9,-0.011760106869854216
0.32000000000000006,-0.9,-0.007131077982941249
0.3400000000000001,-0.9,-0.002389587736337788
0.3600000000000001,-0.9,0.002389587736338239
0.3800000000000001,-0.9,0.007131077982941651
0.40000000000000013,-0.9,0.011760106869854611
0.41999999999999993,-0.9,0.016203671846282644
0.43999999999999995,-0.9,0.02039169523809043
0.45999999999999996,-0.9,0.024258129414585224
0.48,-0.9,0.027741998399107896
0.5,-0.9,0.030788359496610053
0.52,-0.9,0.03334916977277627
0.54,-0.9,0.035384043719797434
0.56,-0.9,0.03686089015995427
0.5800000000000001,-0.9,0.037756418342660185
0.6000000000000001,-0.9,0.038056505253511244
0.6200000000000001,-0.9,0.03775641834266014
0.6400000000000001,-0.9,0.03686089015995422
0.6600000000000001,-0.9,0.035384043719797365
0.6799999999999999,-0.9,0.03334916977277618
0.7,-0.9,0.03078835949660993
0.72,-0.9,0.027741998399107674
0.74,-0.9,0.024258129414584894
0.76,-0.9,0.02039169523809005
0.78,-0.9,0.01620367184628227
0.8,-0.9,0.01176010686985423
0.8200000000000001,-0.9,0.007131077982941242
0.8400000000000001,-0.9,0.002389587736337795
0.8600000000000001,-0.9,-0.002389587736338239
0.8800000000000001,-0.9,-0.007131077982941686
0.9000000000000001,-0.9,-0.011760106869854618
0.9199999999999999,-0.9,-0.016203671846282658
0.94,-0.9,-0.020391695238090424
0.96,-0.9,-0.02425812941458521
0.98,-0.9,-0.027741998399107848
1.0,-0.9,-0.030788359496610046

-1.0,-0.88,-0.10141102471033395
-0.98,-0.88,-0.09116810525326213
-0.96,-0.88,-0.07948741031516016
-0.94,-0.88,-0.06655315143291078
-0.92,-0.88,-0.05256930959563879
-0.9,-0.88,-0.03775641834266015
-0.88,-0.88,-0.022348085817826692
-0.86,-0.88,-0.006587310629546744
-0.84,-0.88,0.00927735038242979
-0.8200000000000001,-0.88,0.024995702036854854
-0.8,-0.88,0.040319856538450084
-0.78,-0.88,0.05500814281651919
-0.76,-0.88,0.06882891782210007
-0.74,-0.88,0.08156421967722394
-0.72,-0.88,0.09301320506393485
-0.7,-0.88,0.10299531664339204
-0.6799999999999999,-0.88,0.11135313055296311
-0.6599999999999999,-0.88,0.11795483907457806
-0.64,-0.88,0.12269632932118146
-0.62,-0.88,0.12550282515915545
-0.6,-0.88,0.12633006647261585
-0.5800000000000001,-0.88,0.12516500717187934
-0.56,-0.88,0.12202602093809128
-0.54,-0.88,0.1169626114592979
-0.52,-0.88,0.11005463172771413
-0.5,-0.88,0.10141102471033399
-0.48,-0.88,0.09116810525326216
-0.45999999999999996,-0.88,0.07948741031516016
-0.43999999999999995,-0.88,0.06655315143291074
-0.42000000000000004,-0.88,0.05256930959563873
-0.4,-0.88,0.037756418342660115
-0.38,-0.88,0.02234808581782667
-0.36,-0.88,0.006587310629546738
-0.33999999999999997,-0.88,-0.009277350382429782
-0.31999999999999995,-0.88,-0.02499570203685486
-0.29999999999999993,-0.88,-0.04031985653845007
-0.28,-0.88,-0.055008142816519195
-0.26,-0.88,-0.06882891782210007
-0.24,-0.88,-0.0815642196772239
-0.21999999999999997,-0.88,-0.09301320506393482
-0.19999999999999996,-0.88,-0.10299531664339207
-0.17999999999999994,-0.88,-0.11135313055296311
-0.16000000000000003,-0.88,-0.11795483907457803
-0.14,-0.88,-0.12269632932118141
-0.12,-0.88,-0.12550282515915545
-0.09999999999999998,-0.88,-0.1263300664726158
-0.07999999999999996,-0.88,-0.12516500717187934
-0.05999999999999994,-0.88,-0.12202602093809127
-0.040000000000000036,-0.88,-0.11696261145929793
-0.020000000000000018,-0.88,-0.11005463172771418
0.0,-0.88,-0.101411024710334
0.020000000000000018,-0.88,-0.09116810525326216
0.040000000000000036,-0.88,-0.07948741031516007
0.06000000000000005,-0.88,-0.06655315143291067
0.08000000000000007,-0.88,-0.052569309595638686
0.10000000000000009,-0.88,-0.037756418342660095
0.1200000000000001,-0.88,-0.022348085817826685
0.14000000000000012,-0.88,-0.006587310629546771
0.15999999999999992,-0.88,0.00927735038242973
0.17999999999999994,-0.88,0.024995702036854833
0.19999999999999996,-0.88,0.04031985653845011
0.21999999999999997,-0.88,0.055008142816519244
0.24,-0.88,0.0688289178221001
0.26,-0.88,0.08156421967722394
0.28,-0.88,0.09301320506393485
0.30000000000000004,-0.88,0.102995316643392
0.32000000000000006,-0.88,0.11135313055296303
0.3400000000000001,-0.88,0.11795483907457802
0.3600000000000001,-0.88,0.12269632932118141
0.3800000000000001,-0.88,0.12550282515915545
0.40000000000000013,-0.88,0.1263300664726158
0.41999999999999993,-0.88,0.12516500717187937
0.43999999999999995,-0.88,0.12202602093809131
0.45999999999999996,-0.88,0.11696261145929795
0.48,-0.88,0.1100546317277141
0.5,-0.88,0.10141102471033393
0.52,-0.88,0.09116810525326208
0.54,-0.88,0.0794874103151601
0.56,-0.88,0.06655315143291074
0.5800000000000001,-0.88,0.05256930959563875
0.6000000000000001,-0.88,0.03775641834266014
0.6200000000000001,-0.88,0.022348085817826713
0.6400000000000001,-0.88,0.00658731062954678
0.6600000000000001,-0.88,-0.009277350382429723
0.6799999999999999,-0.88,-0.02499570203685482
0.7,-0.88,-0.04031985653845007
0.72,-0.88,-0.055008142816519195
0.74,-0.88,-0.06882891782210007
0.76,-0.88,-0.08156421967722388
0.78,-0.88,-0.09301320506393478
0.8,-0.88,-0.10299531664339205
0.8200000000000001,-0.88,-0.11135313055296304
0.8400000000000001,-0.88,-0.11795483907457806
0.8600000000000001,-0.88,-0.12269632932118146
0.8800000000000001,-0.88,-0.12550282515915545
0.9000000000000001,-0.88,-0.12633006647261585
0.9199999999999999,-0.88,-0.12516500717187934
0.94,-0.88,-0.1220260209380913
0.96,-0.88,-0.11696261145929793
0.98,-0.88,-0.11005463172771411
1.0,-0.88,-0.10141102471033395

-1.0,-0.86,-0.17043437748436607
-0.98,-0.86,-0.14754926525271772
-0.96,-0.86,-0.12233721296637541
-0.94,-0.86,-0.09519582975084463
-0.92,-0.86,-0.06655315143291074
-0.9,-0.86,-0.03686089015995422
-0.88,-0.86,-0.006587310629546745
-0.86,-0.86,0.023790154724557314
-0.84,-0.86,0.053792435127105465
-0.8200000000000001,-0.86,0.08294637669365601
-0.8,-0.86,0.11079220434998391
-0.78,-0.86,0.13689077275965775
-0.76,-0.86,0.16083049190832793
-0.74,-0.86,0.18223381812412492
-0.72,-0.86,0.20076320816689813
-0.7,-0.86,0.21612644248675206
-0.6799999999999999,-0.86,0.22808123370091124
-0.6599999999999999,-0.86,0.2364390476104823
-0.64,-0.86,0.2410680764973952
-0.62,-0.86,0.24189531781085544
-0.6,-0.86,0.23890772546118005
-0.5800000000000001,-0.86,0.2321524155644244
-0.56,-0.86,0.2217359233930868
-0.54,-0.86,0.2078225232512201
-0.52,-0.86,0.19063163777052397
-0.5,-0.86,0.17043437748436613
-0.48,-0.86,0.14754926525271778
-0.45999999999999996,-0.86,0.12233721296637536
-0.43999999999999995,-0.86,0.09519582975084455
-0.42000000000000004,-0.86,0.06655315143291067
-0.4,-0.86,0.036860890159954154
-0.38,-0.86,0.006587310629546723
-0.36,-0.86,-0.023790154724557307
-0.33999999999999997,-0.86,-0.053792435127105465
-0.31999999999999995,-0.86,-0.08294637669365598
-0.29999999999999993,-0.86,-0.11079220434998391
-0.28,-0.86,-0.13689077275965775
-0.26,-0.86,-0.16083049190832793
-0.24,-0.86,-0.18223381812412487
-0.21999999999999997,-0.86,-0.20076320816689813
-0.19999999999999996,-0.86,-0.21612644248675206
-0.17999999999999994,-0.86,-0.2280812337009112
-0.16000000000000003,-0.86,-0.23643904761048218
-0.14,-0.86,-0.2410680764973952
-0.12,-0.86,-0.24189531781085544
-0.09999999999999998,-0.86,-0.23890772546118
-0.07999999999999996,-0.86,-0.23215241556442434
-0.05999999999999994,-0.86,-0.2217359233930868
-0.040000000000000036,-0.86,-0.20782252325122014
-0.020000000000000018,-0.86,-0.19063163777052394
0.0,-0.86,-0.17043437748436616
0.020000000000000018,-0.86,-0.14754926525271772
0.040000000000000036,-0.86,-0.12233721296637529
0.06000000000000005,-0.86,-0.09519582975084448
0.08000000000000007,-0.86,-0.0665531514329106
0.10000000000000009,-0.86,-0.036860890159954154
0.1200000000000001,-0.86,-0.006587310629546756
0.14000000000000012,-0.86,0.023790154724557252
0.15999999999999992,-0.86,0.05379243512710542
0.17999999999999994,-0.86,0.08294637669365598