TITLE = "Solution" 
VARIABLES = "x", "y", "sol" 
ZONE STRANDID=1, SOLUTIONTIME= 0.8000000000000005, I= 101, J =101, DATAPACKING=POINT 
-1.0,-1.0,0.669920655974117
-0.98,-1.0,0.7014726446617727
-0.96,-1.0,0.7219619907036658
-0.94,-1.0,0.7310655648729739
-0.92,-1.0,0.7286397983668347
-0.9,-1.0,0.7147229469721335
-0.88,-1.0,0.689534487748889
-0.86,-1.0,0.6534716577459074
-0.84,-1.0,0.6071031893352263
-0.8200000000000001,-1.0,0.5511603409628623
-0.8,-1.0,0.4865253647662856
-0.78,-1.0,0.41421759293117927
-0.76,-1.0,0.3353773622139526
-0.74,-1.0,0.2512480301498867
-0.72,-1.0,0.163156366562059
-0.7,-1.0,0.07249162960865838
-0.6799999999999999,-1.0,-0.019316343648071357
-0.6599999999999999,-1.0,-0.11081968662644684
-0.64,-1.0,-0.20057533694625138
-0.62,-1.0,-0.28716779438451506
-0.6,-1.0,-0.36923144415961007
-0.5800000000000001,-1.0,-0.4454720934921346
-0.56,-1.0,-0.5146873817981586
-0.54,-1.0,-0.5757857426338866
-0.52,-1.0,-0.6278036183505474
-0.5,-1.0,-0.6699206559741169
-0.48,-1.0,-0.7014726446617727
-0.45999999999999996,-1.0,-0.7219619907036656
-0.43999999999999995,-1.0,-0.7310655648729739
-0.42000000000000004,-1.0,-0.7286397983668347
-0.4,-1.0,-0.7147229469721336
-0.38,-1.0,-0.689534487748889
-0.36,-1.0,-0.6534716577459074
-0.33999999999999997,-1.0,-0.6071031893352264
-0.31999999999999995,-1.0,-0.5511603409628623
-0.29999999999999993,-1.0,-0.4865253647662854
-0.28,-1.0,-0.4142175929311792
-0.26,-1.0,-0.33537736221395265
-0.24,-1.0,-0.2512480301498868
-0.21999999999999997,-1.0,-0.16315636656205906
-0.19999999999999996,-1.0,-0.07249162960865835
-0.17999999999999994,-1.0,0.019316343648071475
-0.16000000000000003,-1.0,0.11081968662644681
-0.14,-1.0,0.2005753369462515
-0.12,-1.0,0.2871677943845152
-0.09999999999999998,-1.0,0.3692314441596103
-0.07999999999999996,-1.0,0.4454720934921348
-0.05999999999999994,-1.0,0.5146873817981585
-0.040000000000000036,-1.0,0.5757857426338867
-0.020000000000000018,-1.0,0.6278036183505477
0.0,-1.0,0.6699206559741172
0.020000000000000018,-1.0,0.7014726446617727
0.040000000000000036,-1.0,0.721961990703666
0.06000000000000005,-1.0,0.7310655648729738
0.08000000000000007,-1.0,0.728639798366835
0.10000000000000009,-1.0,0.7147229469721335
0.1200000000000001,-1.0,0.689534487748889
0.14000000000000012,-1.0,0.6534716577459075
0.15999999999999992,-1.0,0.6071031893352263
0.17999999999999994,-1.0,0.5511603409628621
0.19999999999999996,-1.0,0.48652536476628555
0.21999999999999997,-1.0,0.4142175929311792
0.24,-1.0,0.3353773622139525
0.26,-1.0,0.2512480301498869
0.28,-1.0,0.16315636656205898
0.30000000000000004,-1.0,0.07249162960865832
0.32000000000000006,-1.0,-0.01931634364807149
0.3400000000000001,-1.0,-0.11081968662644687
0.3600000000000001,-1.0,-0.20057533694625138
0.3800000000000001,-1.0,-0.2871677943845152
0.40000000000000013,-1.0,-0.36923144415961007
0.41999999999999993,-1.0,-0.4454720934921346
0.43999999999999995,-1.0,-0.5146873817981585
0.45999999999999996,-1.0,-0.5757857426338865
0.48,-1.0,-0.6278036183505474
0.5,-1.0,-0.6699206559741173
0.52,-1.0,-0.7014726446617727
0.54,-1.0,-0.7219619907036661
0.56,-1.0,-0.7310655648729736
0.5800000000000001,-1.0,-0.7286397983668347
0.6000000000000001,-1.0,-0.7147229469721335
0.6200000000000001,-1.0,-0.6895344877488891
0.6400000000000001,-1.0,-0.6534716577459077
0.6600000000000001,-1.0,-0.6071031893352264
0.6799999999999999,-1.0,-0.551160340962862
0.7,-1.0,-0.4865253647662854
0.72,-1.0,-0.4142175929311792
0.74,-1.0,-0.3353773622139525
0.76,-1.0,-0.2512480301498867
0.78,-1.0,-0.16315636656205892
0.8,-1.0,-0.07249162960865821
0.8200000000000001,-1.0,0.01931634364807151
0.8400000000000001,-1.0,0.11081968662644695
0.8600000000000001,-1.0,0.20057533694625132
0.8800000000000001,-1.0,0.2871677943845151
0.9000000000000001,-1.0,0.3692314441596101
0.9199999999999999,-1.0,0.4454720934921346
0.94,-1.0,0.5146873817981586
0.96,-1.0,0.5757857426338866
0.98,-1.0,0.6278036183505475
1.0,-1.0,0.669920655974117

-1.0,-0.98,0.7014726446617727
-0.98,-0.98,0.7303004017307679
-0.96,-0.98,0.7476108852041555
-0.94,-0.98,0.7531310984167776
-0.92,-0.98,0.7467739843086564
-0.9,-0.98,0.7286397983668332
-0.88,-0.98,0.6990145275364478
-0.86,-0.98,0.6583653800357744
-0.84,-0.98,0.6073334172035224
-0.8200000000000001,-0.98,0.5467234435785732
-0.8,-0.98,0.4774913146516353
-0.78,-0.98,0.4007288624531563
-0.76,-0.98,0.3176466767099718
-0.74,-0.98,0.2295550131221442
-0.72,-0.98,0.13784312984786223
-0.7,-0.98,0.043957378072385075
-0.6799999999999999,-0.98,-0.05062160781415875
-0.6599999999999999,-0.98,-0.1444022607055906
-0.64,-0.98,-0.23590560368396604
-0.62,-0.98,-0.3236885743690689
-0.6,-0.98,-0.40636678287418976
-0.5800000000000001,-0.98,-0.4826363444616353
-0.56,-0.98,-0.5512944425839437
-0.54,-0.98,-0.6112582980193659
-0.52,-0.98,-0.6615822449470148
-0.5,-0.98,-0.7014726446617727
-0.48,-0.98,-0.7303004017307679
-0.45999999999999996,-0.98,-0.7476108852041555
-0.43999999999999995,-0.98,-0.7531310984167777
-0.42000000000000004,-0.98,-0.7467739843086565
-0.4,-0.98,-0.7286397983668333
-0.38,-0.98,-0.6990145275364479
-0.36,-0.98,-0.6583653800357745
-0.33999999999999997,-0.98,-0.6073334172035224
-0.31999999999999995,-0.98,-0.5467234435785729
-0.29999999999999993,-0.98,-0.4774913146516353
-0.28,-0.98,-0.40072886245315636
-0.26,-0.98,-0.3176466767099719
-0.24,-0.98,-0.22955501312214427
-0.21999999999999997,-0.98,-0.1378431298478623
-0.19999999999999996,-0.98,-0.043957378072384964
-0.17999999999999994,-0.98,0.05062160781415874
-0.16000000000000003,-0.98,0.14440226070559067
-0.14,-0.98,0.23590560368396613
-0.12,-0.98,0.32368857436906906
-0.09999999999999998,-0.98,0.4063667828741899
-0.07999999999999996,-0.98,0.48263634446163517
-0.05999999999999994,-0.98,0.5512944425839439
-0.040000000000000036,-0.98,0.6112582980193662
-0.020000000000000018,-0.98,0.661582244947015
0.0,-0.98,0.7014726446617728
0.020000000000000018,-0.98,0.7303004017307683
0.040000000000000036,-0.98,0.7476108852041554
0.06000000000000005,-0.98,0.7531310984167778
0.08000000000000007,-0.98,0.7467739843086563
0.10000000000000009,-0.98,0.7286397983668332
0.1200000000000001,-0.98,0.6990145275364482
0.14000000000000012,-0.98,0.6583653800357745
0.15999999999999992,-0.98,0.6073334172035223
0.17999999999999994,-0.98,0.546723443578573
0.19999999999999996,-0.98,0.47749131465163525
0.21999999999999997,-0.98,0.40072886245315625
0.24,-0.98,0.317646676709972
0.26,-0.98,0.22955501312214424
0.28,-0.98,0.13784312984786226
0.30000000000000004,-0.98,0.043957378072384944
0.32000000000000006,-0.98,-0.05062160781415881
0.3400000000000001,-0.98,-0.1444022607055906
0.3600000000000001,-0.98,-0.23590560368396613
0.3800000000000001,-0.98,-0.32368857436906895
0.40000000000000013,-0.98,-0.4063667828741898
0.41999999999999993,-0.98,-0.4826363444616353
0.43999999999999995,-0.98,-0.5512944425839434
0.45999999999999996,-0.98,-0.6112582980193659
0.48,-0.98,-0.6615822449470152
0.5,-0.98,-0.7014726446617727
0.52,-0.98,-0.7303004017307683
0.54,-0.98,-0.7476108852041552
0.56,-0.98,-0.7531310984167777
0.5800000000000001,-0.98,-0.7467739843086564
0.6000000000000001,-0.98,-0.7286397983668333
0.6200000000000001,-0.98,-0.6990145275364481
0.6400000000000001,-0.98,-0.6583653800357746
0.6600000000000001,-0.98,-0.6073334172035222
0.6799999999999999,-0.98,-0.5467234435785729
0.7,-0.98,-0.4774913146516353
0.72,-0.98,-0.40072886245315614
0.74,-0.98,-0.3176466767099718
0.76,-0.98,-0.22955501312214416
0.78,-0.98,-0.13784312984786212
0.8,-0.98,-0.04395737807238489
0.8200000000000001,-0.98,0.05062160781415885
0.8400000000000001,-0.98,0.1444022607055906
0.8600000000000001,-0.98,0.23590560368396615
0.8800000000000001,-0.98,0.323688574369069
0.9000000000000001,-0.98,0.4063667828741898
0.9199999999999999,-0.98,0.4826363444616353
0.94,-0.98,0.5512944425839437
0.96,-0.98,0.6112582980193659
0.98,-0.98,0.6615822449470148
1.0,-0.98,0.7014726446617727

-1.0,-0.96,0.7219619907036658
-0.98,-0.96,0.7476108852041555
-0.96,-0.96,0.7614695094438799
-0.94,-0.96,0.7633193046398378
-0.92,-0.96,0.7531310984167755
-0.9,-0.96,0.7310655648729703
-0.88,-0.96,0.6974706906537185
-0.86,-0.96,0.6528762869940629
-0.84,-0.96,0.5979856342791215
-0.8200000000000001,-0.96,0.5336643908922956
-0.8,-0.96,0.460926941265444
-0.78,-0.96,0.38092039843042785
-0.76,-0.96,0.29490651336134793
-0.74,-0.96,0.20424177640794752
-0.72,-0.96,0.11035602463247045
-0.7,-0.96,0.014729892425045304
-0.6799999999999999,-0.96,-0.08112853898513403
-0.6599999999999999,-0.96,-0.17570752487167784
-0.64,-0.96,-0.267515498128408
-0.62,-0.96,-0.35510459217364054
-0.6,-0.96,-0.43709347467109394
-0.5800000000000001,-0.96,-0.5121891319659987
-0.56,-0.96,-0.5792072606828427
-0.54,-0.96,-0.6370909448970719
-0.52,-0.96,-0.6849273243305912
-0.5,-0.96,-0.7219619907036658
-0.48,-0.96,-0.7476108852041554
-0.45999999999999996,-0.96,-0.7614695094438799
-0.43999999999999995,-0.96,-0.7633193046398377
-0.42000000000000004,-0.96,-0.7531310984167756
-0.4,-0.96,-0.7310655648729704
-0.38,-0.96,-0.6974706906537186
-0.36,-0.96,-0.652876286994063
-0.33999999999999997,-0.96,-0.5979856342791213
-0.31999999999999995,-0.96,-0.5336643908922954
-0.29999999999999993,-0.96,-0.4609269412654441
-0.28,-0.96,-0.3809203984304281
-0.26,-0.96,-0.2949065133613481
-0.24,-0.96,-0.20424177640794763
-0.21999999999999997,-0.96,-0.11035602463247038
-0.19999999999999996,-0.96,-0.014729892425045315
-0.17999999999999994,-0.96,0.0811285389851341
-0.16000000000000003,-0.96,0.17570752487167796
-0.14,-0.96,0.26751549812840814
-0.12,-0.96,0.35510459217364077
-0.09999999999999998,-0.96,0.43709347467109394
-0.07999999999999996,-0.96,0.5121891319659989
-0.05999999999999994,-0.96,0.579207260682843
-0.040000000000000036,-0.96,0.6370909448970722
-0.020000000000000018,-0.96,0.6849273243305913
0.0,-0.96,0.721961990703666
0.020000000000000018,-0.96,0.7476108852041554
0.040000000000000036,-0.96,0.76146950944388
0.06000000000000005,-0.96,0.7633193046398377
0.08000000000000007,-0.96,0.7531310984167755
0.10000000000000009,-0.96,0.7310655648729706
0.1200000000000001,-0.96,0.6974706906537186
0.14000000000000012,-0.96,0.6528762869940629
0.15999999999999992,-0.96,0.5979856342791214
0.17999999999999994,-0.96,0.5336643908922954
0.19999999999999996,-0.96,0.46092694126544403
0.21999999999999997,-0.96,0.380920398430428
0.24,-0.96,0.29490651336134804
0.26,-0.96,0.2042417764079476
0.28,-0.96,0.11035602463247034
0.30000000000000004,-0.96,0.014729892425045263
0.32000000000000006,-0.96,-0.08112853898513409
0.3400000000000001,-0.96,-0.17570752487167796
0.3600000000000001,-0.96,-0.267515498128408
0.3800000000000001,-0.96,-0.3551045921736406
0.40000000000000013,-0.96,-0.43709347467109394
0.41999999999999993,-0.96,-0.5121891319659986
0.43999999999999995,-0.96,-0.5792072606828428
0.45999999999999996,-0.96,-0.6370909448970722
0.48,-0.96,-0.6849273243305912
0.5,-0.96,-0.7219619907036661
0.52,-0.96,-0.7476108852041551
0.54,-0.96,-0.7614695094438799
0.56,-0.96,-0.7633193046398377
0.5800000000000001,-0.96,-0.7531310984167756
0.6000000000000001,-0.96,-0.7310655648729705
0.6200000000000001,-0.96,-0.6974706906537186
0.6400000000000001,-0.96,-0.6528762869940627
0.6600000000000001,-0.96,-0.5979856342791214
0.6799999999999999,-0.96,-0.5336643908922954
0.7,-0.96,-0.46092694126544387
0.72,-0.96,-0.38092039843042796
0.74,-0.96,-0.2949065133613479
0.76,-0.96,-0.20424177640794744
0.78,-0.96,-0.11035602463247024
0.8,-0.96,-0.0147298924250452
0.8200000000000001,-0.96,0.08112853898513406
0.8400000000000001,-0.96,0.17570752487167793
0.8600000000000001,-0.96,0.2675154981284081
0.8800000000000001,-0.96,0.3551045921736407
0.9000000000000001,-0.96,0.437093474671094
0.9199999999999999,-0.96,0.5121891319659988
0.94,-0.96,0.5792072606828428
0.96,-0.96,0.637090944897072
0.98,-0.96,0.6849273243305912
1.0,-0.96,0.7219619907036658

-1.0,-0.94,0.7310655648729739
-0.98,-0.94,0.7531310984167776
-0.96,-0.94,0.7633193046398378
-0.94,-0.94,0.7614695094438773
-0.92,-0.94,0.7476108852041513
-0.9,-0.94,0.7219619907036608
-0.88,-0.94,0.6849273243305856
-0.86,-0.94,0.6370909448970657
-0.84,-0.94,0.579207260682836
-0.8200000000000001,-0.94,0.5121891319659925
-0.8,-0.94,0.4370934746710881
-0.78,-0.94,0.3551045921736357
-0.76,-0.94,0.2675154981284038
-0.74,-0.94,0.17570752487167443
-0.72,-0.94,0.08112853898513074
-0.7,-0.94,-0.014729892425048515
-0.6799999999999999,-0.94,-0.11035602463247367
-0.6599999999999999,-0.94,-0.20424177640795127
-0.64,-0.94,-0.2949065133613522
-0.62,-0.94,-0.3809203984304329
-0.6,-0.94,-0.4609269412654494
-0.5800000000000001,-0.94,-0.5336643908923013
-0.56,-0.94,-0.597985634279127
-0.54,-0.94,-0.652876286994068
-0.52,-0.94,-0.6974706906537228
-0.5,-0.94,-0.7310655648729738
-0.48,-0.94,-0.7531310984167777
-0.45999999999999996,-0.94,-0.7633193046398377
-0.43999999999999995,-0.94,-0.7614695094438776
-0.42000000000000004,-0.94,-0.7476108852041515
-0.4,-0.94,-0.721961990703661
-0.38,-0.94,-0.6849273243305856
-0.36,-0.94,-0.6370909448970656
-0.33999999999999997,-0.94,-0.579207260682836
-0.31999999999999995,-0.94,-0.5121891319659926
-0.29999999999999993,-0.94,-0.43709347467108844
-0.28,-0.94,-0.35510459217363594
-0.26,-0.94,-0.26751549812840403
-0.24,-0.94,-0.1757075248716744
-0.21999999999999997,-0.94,-0.08112853898513075
-0.19999999999999996,-0.94,0.014729892425048591
-0.17999999999999994,-0.94,0.11035602463247378
-0.16000000000000003,-0.94,0.2042417764079514
-0.14,-0.94,0.2949065133613524
-0.12,-0.94,0.38092039843043296
-0.09999999999999998,-0.94,0.46092694126544964
-0.07999999999999996,-0.94,0.5336643908923016
-0.05999999999999994,-0.94,0.5979856342791273
-0.040000000000000036,-0.94,0.6528762869940681
-0.020000000000000018,-0.94,0.6974706906537229
0.0,-0.94,0.7310655648729738
0.020000000000000018,-0.94,0.7531310984167778
0.040000000000000036,-0.94,0.7633193046398375
0.06000000000000005,-0.94,0.7614695094438774
0.08000000000000007,-0.94,0.7476108852041518
0.10000000000000009,-0.94,0.721961990703661
0.1200000000000001,-0.94,0.6849273243305856
0.14000000000000012,-0.94,0.6370909448970656
0.15999999999999992,-0.94,0.579207260682836
0.17999999999999994,-0.94,0.5121891319659925
0.19999999999999996,-0.94,0.43709347467108844
0.21999999999999997,-0.94,0.3551045921736359
0.24,-0.94,0.267515498128404
0.26,-0.94,0.17570752487167435
0.28,-0.94,0.08112853898513069
0.30000000000000004,-0.94,-0.014729892425048591
0.32000000000000006,-0.94,-0.11035602463247379
0.3400000000000001,-0.94,-0.20424177640795138
0.3600000000000001,-0.94,-0.2949065133613522
0.3800000000000001,-0.94,-0.3809203984304329
0.40000000000000013,-0.94,-0.4609269412654492
0.41999999999999993,-0.94,-0.5336643908923014
0.43999999999999995,-0.94,-0.5979856342791272
0.45999999999999996,-0.94,-0.6528762869940679
0.48,-0.94,-0.697470690653723
0.5,-0.94,-0.7310655648729735
0.52,-0.94,-0.7531310984167776
0.54,-0.94,-0.7633193046398378
0.56,-0.94,-0.7614695094438776
0.5800000000000001,-0.94,-0.7476108852041516
0.6000000000000001,-0.94,-0.721961990703661
0.6200000000000001,-0.94,-0.6849273243305853
0.6400000000000001,-0.94,-0.6370909448970657
0.6600000000000001,-0.94,-0.579207260682836
0.6799999999999999,-0.94,-0.5121891319659925
0.7,-0.94,-0.4370934746710883
0.72,-0.94,-0.35510459217363577
0.74,-0.94,-0.26751549812840375
0.76,-0.94,-0.17570752487167424
0.78,-0.94,-0.08112853898513064
0.8,-0.94,0.014729892425048585
0.8200000000000001,-0.94,0.11035602463247376
0.8400000000000001,-0.94,0.20424177640795138
0.8600000000000001,-0.94,0.2949065133613523
0.8800000000000001,-0.94,0.38092039843043296
0.9000000000000001,-0.94,0.46092694126544953
0.9199999999999999,-0.94,0.5336643908923014
0.94,-0.94,0.597985634279127
0.96,-0.94,0.6528762869940679
0.98,-0.94,0.6974706906537228
1.0,-0.94,0.7310655648729739

-1.0,-0.92,0.7286397983668348
-0.98,-0.92,0.7467739843086565
-0.96,-0.92,0.7531310984167754
-0.94,-0.92,0.7476108852041513
-0.92,-0.92,0.7303004017307628
-0.9,-0.92,0.7014726446617667
-0.88,-0.92,0.6615822449470083
-0.86,-0.92,0.6112582980193587
-0.84,-0.92,0.5512944425839367
-0.8200000000000001,-0.92,0.48263634446162873
-0.8,-0.92,0.4063667828741844
-0.78,-0.92,0.3236885743690643
-0.76,-0.92,0.2359056036839624
-0.74,-0.92,0.1444022607055872
-0.72,-0.92,0.05062160781415561
-0.7,-0.92,-0.0439573780723881
-0.6799999999999999,-0.92,-0.13784312984786562
-0.6599999999999999,-0.92,-0.22955501312214782
-0.64,-0.92,-0.31764667670997604
-0.62,-0.92,-0.40072886245316097
-0.6,-0.92,-0.47749131465164013
-0.5800000000000001,-0.92,-0.5467234435785777
-0.56,-0.92,-0.6073334172035263
-0.54,-0.92,-0.6583653800357776
-0.52,-0.92,-0.6990145275364504
-0.5,-0.92,-0.7286397983668348
-0.48,-0.92,-0.7467739843086564
-0.45999999999999996,-0.92,-0.7531310984167757
-0.43999999999999995,-0.92,-0.7476108852041515
-0.42000000000000004,-0.92,-0.7303004017307629
-0.4,-0.92,-0.7014726446617666
-0.38,-0.92,-0.6615822449470083
-0.36,-0.92,-0.6112582980193587
-0.33999999999999997,-0.92,-0.5512944425839367
-0.31999999999999995,-0.92,-0.4826363444616291
-0.29999999999999993,-0.92,-0.4063667828741846
-0.28,-0.92,-0.32368857436906445
-0.26,-0.92,-0.2359056036839624
-0.24,-0.92,-0.1444022607055872
-0.21999999999999997,-0.92,-0.05062160781415552
-0.19999999999999996,-0.92,0.0439573780723882
-0.17999999999999994,-0.92,0.1378431298478657
-0.16000000000000003,-0.92,0.22955501312214793
-0.14,-0.92,0.31764667670997615
-0.12,-0.92,0.4007288624531611
-0.09999999999999998,-0.92,0.47749131465164035
-0.07999999999999996,-0.92,0.5467234435785779
-0.05999999999999994,-0.92,0.6073334172035264
-0.040000000000000036,-0.92,0.6583653800357777
-0.020000000000000018,-0.92,0.6990145275364504
0.0,-0.92,0.7286397983668349
0.020000000000000018,-0.92,0.7467739843086563
0.040000000000000036,-0.92,0.7531310984167756
0.06000000000000005,-0.92,0.7476108852041516
0.08000000000000007,-0.92,0.7303004017307628
0.10000000000000009,-0.92,0.7014726446617668
0.1200000000000001,-0.92,0.6615822449470082
0.14000000000000012,-0.92,0.6112582980193587
0.15999999999999992,-0.92,0.5512944425839367
0.17999999999999994,-0.92,0.48263634446162906
0.19999999999999996,-0.92,0.40636678287418454
0.21999999999999997,-0.92,0.32368857436906445
0.24,-0.92,0.23590560368396238
0.26,-0.92,0.14440226070558712
0.28,-0.92,0.05062160781415553
0.30000000000000004,-0.92,-0.043957378072388226
0.32000000000000006,-0.92,-0.13784312984786573
0.3400000000000001,-0.92,-0.22955501312214782
0.3600000000000001,-0.92,-0.31764667670997615
0.3800000000000001,-0.92,-0.40072886245316086
0.40000000000000013,-0.92,-0.47749131465164024
0.41999999999999993,-0.92,-0.5467234435785778
0.43999999999999995,-0.92,-0.6073334172035263
0.45999999999999996,-0.92,-0.6583653800357779
0.48,-0.92,-0.6990145275364501
0.5,-0.92,-0.7286397983668347
0.52,-0.92,-0.7467739843086565
0.54,-0.92,-0.7531310984167756
0.56,-0.92,-0.7476108852041515
0.5800000000000001,-0.92,-0.7303004017307628
0.6000000000000001,-0.92,-0.7014726446617666
0.6200000000000001,-0.92,-0.6615822449470081
0.6400000000000001,-0.92,-0.6112582980193587
0.6600000000000001,-0.92,-0.5512944425839367
0.6799999999999999,-0.92,-0.4826363444616289
0.7,-0.92,-0.4063667828741845
0.72,-0.92,-0.32368857436906423
0.74,-0.92,-0.23590560368396216
0.76,-0.92,-0.14440226070558712
0.78,-0.92,-0.05062160781415552
0.8,-0.92,0.043957378072388226
0.8200000000000001,-0.92,0.1378431298478657
0.8400000000000001,-0.92,0.22955501312214796
0.8600000000000001,-0.92,0.3176466767099762
0.8800000000000001,-0.92,0.40072886245316097
0.9000000000000001,-0.92,0.47749131465164024
0.9199999999999999,-0.92,0.5467234435785777
0.94,-0.92,0.6073334172035265
0.96,-0.92,0.6583653800357776
0.98,-0.92,0.6990145275364507
1.0,-0.92,0.7286397983668348

-1.0,-0.9,0.7147229469721337
-0.98,-0.9,0.728639798366833
-0.96,-0.9,0.7310655648729701
-0.94,-0.9,0.721961990703661
-0.92,-0.9,0.7014726446617667
-0.9,-0.9,0.6699206559741103
-0.88,-0.9,0.6278036183505399
-0.86,-0.9,0.575785742633879
-0.84,-0.9,0.5146873817981513
-0.8200000000000001,-0.9,0.4454720934921288
-0.8,-0.9,0.3692314441596051
-0.78,-0.9,0.2871677943845111
-0.76,-0.9,0.2005753369462478
-0.74,-0.9,0.11081968662644372
-0.72,-0.9,0.019316343648068467
-0.7,-0.9,-0.0724916296086614
-0.6799999999999999,-0.9,-0.16315636656206212
-0.6599999999999999,-0.9,-0.2512480301498903
-0.64,-0.9,-0.33537736221395653
-0.62,-0.9,-0.41421759293118326
-0.6,-0.9,-0.4865253647662891
-0.5800000000000001,-0.9,-0.551160340962865
-0.56,-0.9,-0.6071031893352283
-0.54,-0.9,-0.6534716577459092
-0.52,-0.9,-0.68953448774889
-0.5,-0.9,-0.7147229469721336
-0.48,-0.9,-0.7286397983668335
-0.45999999999999996,-0.9,-0.7310655648729705
-0.43999999999999995,-0.9,-0.721961990703661
-0.42000000000000004,-0.9,-0.7014726446617666
-0.4,-0.9,-0.6699206559741104
-0.38,-0.9,-0.6278036183505401
-0.36,-0.9,-0.5757857426338792
-0.33999999999999997,-0.9,-0.5146873817981519
-0.31999999999999995,-0.9,-0.4454720934921291
-0.29999999999999993,-0.9,-0.36923144415960535
-0.28,-0.9,-0.2871677943845112
-0.26,-0.9,-0.20057533694624785
-0.24,-0.9,-0.11081968662644363
-0.21999999999999997,-0.9,-0.01931634364806841
-0.19999999999999996,-0.9,0.07249162960866146
-0.17999999999999994,-0.9,0.1631563665620622
-0.16000000000000003,-0.9,0.2512480301498904
-0.14,-0.9,0.33537736221395664
-0.12,-0.9,0.41421759293118343
-0.09999999999999998,-0.9,0.4865253647662892
-0.07999999999999996,-0.9,0.5511603409628653
-0.05999999999999994,-0.9,0.6071031893352284
-0.040000000000000036,-0.9,0.653471657745909
-0.020000000000000018,-0.9,0.6895344877488901
0.0,-0.9,0.7147229469721333
0.020000000000000018,-0.9,0.7286397983668332
0.040000000000000036,-0.9,0.7310655648729705
0.06000000000000005,-0.9,0.721961990703661
0.08000000000000007,-0.9,0.7014726446617668
0.10000000000000009,-0.9,0.6699206559741102
0.1200000000000001,-0.9,0.6278036183505401
0.14000000000000012,-0.9,0.5757857426338792
0.15999999999999992,-0.9,0.5146873817981518
0.17999999999999994,-0.9,0.44547209349212896
0.19999999999999996,-0.9,0.3692314441596053
0.21999999999999997,-0.9,0.2871677943845112
0.24,-0.9,0.20057533694624774
0.26,-0.9,0.11081968662644363
0.28,-0.9,0.019316343648068363
0.30000000000000004,-0.9,-0.07249162960866147
0.32000000000000006,-0.9,-0.16315636656206217
0.3400000000000001,-0.9,-0.2512480301498904
0.3600000000000001,-0.9,-0.3353773622139565
0.3800000000000001,-0.9,-0.4142175929311833
0.40000000000000013,-0.9,-0.48652536476628916
0.41999999999999993,-0.9,-0.5511603409628651
0.43999999999999995,-0.9,-0.6071031893352286
0.45999999999999996,-0.9,-0.6534716577459089
0.48,-0.9,-0.68953448774889
0.5,-0.9,-0.7147229469721336
0.52,-0.9,-0.7286397983668332
0.54,-0.9,-0.7310655648729705
0.56,-0.9,-0.7219619907036608
0.5800000000000001,-0.9,-0.7014726446617666
0.6000000000000001,-0.9,-0.6699206559741102
0.6200000000000001,-0.9,-0.6278036183505399
0.6400000000000001,-0.9,-0.5757857426338792
0.6600000000000001,-0.9,-0.5146873817981517
0.6799999999999999,-0.9,-0.4454720934921289
0.7,-0.9,-0.36923144415960507
0.72,-0.9,-0.28716779438451084
0.74,-0.9,-0.20057533694624777
0.76,-0.9,-0.11081968662644362
0.78,-0.9,-0.019316343648068335
0.8,-0.9,0.07249162960866147
0.8200000000000001,-0.9,0.16315636656206225
0.8400000000000001,-0.9,0.25124803014989044
0.8600000000000001,-0.9,0.3353773622139566
0.8800000000000001,-0.9,0.4142175929311833
0.9000000000000001,-0.9,0.48652536476628905
0.9199999999999999,-0.9,0.5511603409628653
0.94,-0.9,0.6071031893352284
0.96,-0.9,0.6534716577459093
0.98,-0.9,0.6895344877488901
1.0,-0.9,0.7147229469721337

-1.0,-0.88,0.6895344877488888
-0.98,-0.88,0.6990145275364478
-0.96,-0.88,0.6974706906537186
-0.94,-0.88,0.6849273243305856
-0.92,-0.88,0.6615822449470083
-0.9,-0.88,0.6278036183505399
-0.88,-0.88,0.584124153660981
-0.86,-0.88,0.5312327021293325
-0.84,-0.88,0.4699633935420714
-0.8200000000000001,-0.88,0.401282481496128
-0.8,-0.88,0.3262731050024556
-0.78,-0.88,0.2461182067367887
-0.76,-0.88,0.16208187732699256
-0.74,-0.88,0.07548941988872922
-0.72,-0.88,-0.0122935507963732
-0.7,-0.88,-0.09988264484160544
-0.6799999999999999,-0.88,-0.1858965299106859
-0.6599999999999999,-0.88,-0.26897871565387077
-0.64,-0.88,-0.34781894637109745
-0.62,-0.88,-0.42117386452708455
-0.6,-0.88,-0.48788661924240817
-0.5800000000000001,-0.88,-0.54690511052294
-0.56,-0.88,-0.5972985815052482
-0.54,-0.88,-0.6382722970483411
-0.52,-0.88,-0.6691800771815927
-0.5,-0.88,-0.6895344877488891
-0.48,-0.88,-0.699014527536448
-0.45999999999999996,-0.88,-0.6974706906537185
-0.43999999999999995,-0.88,-0.6849273243305855
-0.42000000000000004,-0.88,-0.6615822449470083
-0.4,-0.88,-0.6278036183505401
-0.38,-0.88,-0.584124153660981
-0.36,-0.88,-0.5312327021293332
-0.33999999999999997,-0.88,-0.46996339354207173
-0.31999999999999995,-0.88,-0.4012824814961282
-0.29999999999999993,-0.88,-0.3262731050024556
-0.28,-0.88,-0.24611820673678877
-0.26,-0.88,-0.16208187732699247
-0.24,-0.88,-0.07548941988872918
-0.21999999999999997,-0.88,0.012293550796373214
-0.19999999999999996,-0.88,0.09988264484160551
-0.17999999999999994,-0.88,0.18589652991068598
-0.16000000000000003,-0.88,0.2689787156538708
-0.14,-0.88,0.3478189463710976
-0.12,-0.88,0.42117386452708466
-0.09999999999999998,-0.88,0.4878866192424084
-0.07999999999999996,-0.88,0.5469051105229401
-0.05999999999999994,-0.88,0.5972985815052482
-0.040000000000000036,-0.88,0.6382722970483411
-0.020000000000000018,-0.88,0.6691800771815924
0.0,-0.88,0.6895344877488889
0.020000000000000018,-0.88,0.699014527536448
0.040000000000000036,-0.88,0.6974706906537186
0.06000000000000005,-0.88,0.6849273243305856
0.08000000000000007,-0.88,0.6615822449470082
0.10000000000000009,-0.88,0.62780361835054
0.1200000000000001,-0.88,0.584124153660981
0.14000000000000012,-0.88,0.531232702129333
0.15999999999999992,-0.88,0.46996339354207156
0.17999999999999994,-0.88,0.40128248149612816
0.19999999999999996,-0.88,0.32627310500245554
0.21999999999999997,-0.88,0.24611820673678866
0.24,-0.88,0.1620818773269925
0.26,-0.88,0.07548941988872912
0.28,-0.88,-0.012293550796373256
0.30000000000000004,-0.88,-0.09988264484160551
0.32000000000000006,-0.88,-0.185896529910686
0.3400000000000001,-0.88,-0.2689787156538707
0.3600000000000001,-0.88,-0.3478189463710975
0.3800000000000001,-0.88,-0.4211738645270846
0.40000000000000013,-0.88,-0.4878866192424082
0.41999999999999993,-0.88,-0.5469051105229401
0.43999999999999995,-0.88,-0.597298581505248
0.45999999999999996,-0.88,-0.6382722970483409
0.48,-0.88,-0.6691800771815927
0.5,-0.88,-0.6895344877488889
0.52,-0.88,-0.6990145275364479
0.54,-0.88,-0.6974706906537185
0.56,-0.88,-0.6849273243305855
0.5800000000000001,-0.88,-0.6615822449470081
0.6000000000000001,-0.88,-0.6278036183505399
0.6200000000000001,-0.88,-0.584124153660981
0.6400000000000001,-0.88,-0.5312327021293329
0.6600000000000001,-0.88,-0.4699633935420716
0.6799999999999999,-0.88,-0.40128248149612794
0.7,-0.88,-0.32627310500245527
0.72,-0.88,-0.24611820673678872
0.74,-0.88,-0.16208187732699245
0.76,-0.88,-0.07548941988872906
0.78,-0.88,0.012293550796373256
0.8,-0.88,0.09988264484160558
0.8200000000000001,-0.88,0.1858965299106861
0.8400000000000001,-0.88,0.2689787156538708
0.8600000000000001,-0.88,0.34781894637109756
0.8800000000000001,-0.88,0.42117386452708455
0.9000000000000001,-0.88,0.48788661924240834
0.9199999999999999,-0.88,0.54690511052294
0.94,-0.88,0.5972985815052483
0.96,-0.88,0.6382722970483411
0.98,-0.88,0.6691800771815927
1.0,-0.88,0.6895344877488888

-1.0,-0.86,0.6534716577459073
-0.98,-0.86,0.6583653800357747
-0.96,-0.86,0.6528762869940629
-0.94,-0.86,0.6370909448970659
-0.92,-0.86,0.6112582980193587
-0.9,-0.86,0.5757857426338792
-0.88,-0.86,0.5312327021293326
-0.86,-0.86,0.47830180456917337
-0.84,-0.86,0.4178278018273094
-0.8200000000000001,-0.86,0.3507644050523982
-0.8,-0.86,0.2781692440733115
-0.78,-0.86,0.20118718794493715
-0.76,-0.86,0.12103228967927021
-0.74,-0.86,0.038968639904175734
-0.72,-0.86,-0.04370956860094463
-0.7,-0.86,-0.1256984510983976
-0.6799999999999999,-0.86,-0.205704993933414
-0.6599999999999999,-0.86,-0.2824674461318932
-0.64,-0.86,-0.35477521796699885
-0.62,-0.86,-0.42148797268232246
-0.6,-0.86,-0.4815536102837357
-0.5800000000000001,-0.86,-0.5340248597847915
-0.56,-0.86,-0.5780742182360529
-0.54,-0.86,-0.613007000940932
-0.52,-0.86,-0.6382722970483403
-0.5,-0.86,-0.6534716577459075
-0.48,-0.86,-0.6583653800357745
-0.45999999999999996,-0.86,-0.6528762869940626
-0.43999999999999995,-0.86,-0.6370909448970657
-0.42000000000000004,-0.86,-0.6112582980193588
-0.4,-0.86,-0.575785742633879
-0.38,-0.86,-0.5312327021293333
-0.36,-0.86,-0.47830180456917376
-0.33999999999999997,-0.86,-0.4178278018273095
-0.31999999999999995,-0.86,-0.3507644050523982
-0.29999999999999993,-0.86,-0.27816924407331167
-0.28,-0.86,-0.20118718794493703
-0.26,-0.86,-0.12103228967927018
-0.24,-0.86,-0.03896863990417574
-0.21999999999999997,-0.86,0.04370956860094469
-0.19999999999999996,-0.86,0.12569845109839767
-0.17999999999999994,-0.86,0.20570499393341404
-0.16000000000000003,-0.86,0.2824674461318933
-0.14,-0.86,0.35477521796699896
-0.12,-0.86,0.4214879726823227
-0.09999999999999998,-0.86,0.4815536102837359
-0.07999999999999996,-0.86,0.5340248597847914
-0.05999999999999994,-0.86,0.5780742182360529
-0.040000000000000036,-0.86,0.6130070009409319
-0.020000000000000018,-0.86,0.6382722970483403
0.0,-0.86,0.6534716577459074
0.020000000000000018,-0.86,0.6583653800357745
0.040000000000000036,-0.86,0.6528762869940629
0.06000000000000005,-0.86,0.6370909448970655
0.08000000000000007,-0.86,0.6112582980193588
0.10000000000000009,-0.86,0.5757857426338789
0.1200000000000001,-0.86,0.531232702129333
0.14000000000000012,-0.86,0.4783018045691735
0.15999999999999992,-0.86,0.41782780182730955
0.17999999999999994,-0.86,0.35076440505239814
0.19999999999999996,-0.86,0.27816924407331156
0.21999999999999997,-0.86,0.20118718794493706
0.24,-0.86,0.12103228967927014
0.26,-0.86,0.038968639904175706
0.28,-0.86,-0.043709568600944715
0.30000000000000004,-0.86,-0.1256984510983977
0.32000000000000006,-0.86,-0.205704993933414
0.3400000000000001,-0.86,-0.2824674461318932
0.3600000000000001,-0.86,-0.35477521796699896
0.3800000000000001,-0.86,-0.4214879726823226
0.40000000000000013,-0.86,-0.48155361028373594
0.41999999999999993,-0.86,-0.5340248597847913