TITLE = "Solution" 
VARIABLES = "x", "y", "sol" 
ZONE STRANDID=1, SOLUTIONTIME= 0.4100000000000002, I= 101, J =101, DATAPACKING=POINT 
-1.0,-1.0,0.14852628723169176
-0.98,-1.0,0.2040575632452307
-0.96,-1.0,0.2563707295883129
-0.94,-1.0,0.3046407763773365
-0.92,-1.0,0.34810645613931096
-0.9,-1.0,0.3860822891392514
-0.88,-1.0,0.4179693738050856
-0.86,-1.0,0.4432648317632119
-0.84,-1.0,0.4615697385308571
-0.8200000000000001,-1.0,0.47259541479347356
-0.8,-1.0,0.47616797904998026
-0.78,-1.0,0.472231089827906
-0.76,-1.0,0.4608468342220667
-0.74,-1.0,0.44219474874399084
-0.72,-1.0,0.41656898792388347
-0.7,-1.0,0.3843736853179651
-0.6799999999999999,-1.0,0.34611658008087254
-0.6599999999999999,-1.0,0.3024010096158818
-0.64,-1.0,0.2539163945836416
-0.62,-1.0,0.20142736632651553
-0.6,-1.0,0.14576170817554412
-0.5800000000000001,-1.0,0.08779730081282046
-0.56,-1.0,0.028448277568713373
-0.54,-1.0,-0.031349392006829624
-0.52,-1.0,-0.0906526629432059
-0.5,-1.0,-0.14852628723169184
-0.48,-1.0,-0.2040575632452308
-0.45999999999999996,-1.0,-0.25637072958831286
-0.43999999999999995,-1.0,-0.30464077637733666
-0.42000000000000004,-1.0,-0.348106456139311
-0.4,-1.0,-0.38608228913925136
-0.38,-1.0,-0.41796937380508553
-0.36,-1.0,-0.44326483176321196
-0.33999999999999997,-1.0,-0.46156973853085714
-0.31999999999999995,-1.0,-0.4725954147934736
-0.29999999999999993,-1.0,-0.4761679790499802
-0.28,-1.0,-0.47223108982790596
-0.26,-1.0,-0.4608468342220669
-0.24,-1.0,-0.4421947487439909
-0.21999999999999997,-1.0,-0.4165689879238836
-0.19999999999999996,-1.0,-0.3843736853179651
-0.17999999999999994,-1.0,-0.3461165800808725
-0.16000000000000003,-1.0,-0.30240100961588184
-0.14,-1.0,-0.25391639458364157
-0.12,-1.0,-0.20142736632651542
-0.09999999999999998,-1.0,-0.14576170817554407
-0.07999999999999996,-1.0,-0.08779730081282039
-0.05999999999999994,-1.0,-0.028448277568713317
-0.040000000000000036,-1.0,0.03134939200682964
-0.020000000000000018,-1.0,0.09065266294320584
0.0,-1.0,0.14852628723169178
0.020000000000000018,-1.0,0.20405756324523064
0.040000000000000036,-1.0,0.25637072958831286
0.06000000000000005,-1.0,0.3046407763773365
0.08000000000000007,-1.0,0.34810645613931085
0.10000000000000009,-1.0,0.38608228913925124
0.1200000000000001,-1.0,0.4179693738050854
0.14000000000000012,-1.0,0.44326483176321196
0.15999999999999992,-1.0,0.46156973853085703
0.17999999999999994,-1.0,0.47259541479347356
0.19999999999999996,-1.0,0.4761679790499801
0.21999999999999997,-1.0,0.472231089827906
0.24,-1.0,0.4608468342220666
0.26,-1.0,0.44219474874399084
0.28,-1.0,0.4165689879238834
0.30000000000000004,-1.0,0.38437368531796495
0.32000000000000006,-1.0,0.34611658008087254
0.3400000000000001,-1.0,0.30240100961588173
0.3600000000000001,-1.0,0.2539163945836415
0.3800000000000001,-1.0,0.20142736632651545
0.40000000000000013,-1.0,0.145761708175544
0.41999999999999993,-1.0,0.08779730081282036
0.43999999999999995,-1.0,0.02844827756871332
0.45999999999999996,-1.0,-0.03134939200682963
0.48,-1.0,-0.09065266294320584
0.5,-1.0,-0.1485262872316918
0.52,-1.0,-0.20405756324523075
0.54,-1.0,-0.2563707295883128
0.56,-1.0,-0.30464077637733655
0.5800000000000001,-1.0,-0.348106456139311
0.6000000000000001,-1.0,-0.3860822891392513
0.6200000000000001,-1.0,-0.4179693738050855
0.6400000000000001,-1.0,-0.44326483176321196
0.6600000000000001,-1.0,-0.4615697385308571
0.6799999999999999,-1.0,-0.47259541479347345
0.7,-1.0,-0.4761679790499802
0.72,-1.0,-0.472231089827906
0.74,-1.0,-0.46084683422206674
0.76,-1.0,-0.4421947487439908
0.78,-1.0,-0.41656898792388336
0.8,-1.0,-0.38437368531796495
0.8200000000000001,-1.0,-0.34611658008087254
0.8400000000000001,-1.0,-0.3024010096158817
0.8600000000000001,-1.0,-0.2539163945836415
0.8800000000000001,-1.0,-0.20142736632651545
0.9000000000000001,-1.0,-0.1457617081755441
0.9199999999999999,-1.0,-0.0877973008128205
0.94,-1.0,-0.028448277568713425
0.96,-1.0,0.03134939200682955
0.98,-1.0,0.09065266294320581
1.0,-1.0,0.14852628723169176

-1.0,-0.98,0.2040575632452307
-0.98,-0.98,0.2677252757213663
-0.96,-0.98,0.32717080066804805
-0.94,-0.98,0.3814566466458319
-0.92,-0.98,0.429726693434856
-0.9,-0.98,0.4712196935621287
-0.88,-0.98,0.5052812776289257
-0.86,-0.98,0.5313742741071104
-0.84,-0.98,0.5490871808550205
-0.8200000000000001,-0.98,0.558140654752064
-0.8,-0.98,0.5583919171066016
-0.78,-0.98,0.5498370053612058
-0.76,-0.98,0.5326108355845578
-0.74,-0.98,0.5069850747644505
-0.72,-0.98,0.47336385645710416
-0.7,-0.98,0.4322774073595679
-0.6799999999999999,-0.98,0.38437368531796506
-0.6599999999999999,-0.98,0.33040816064518813
-0.64,-0.98,0.2712319019027685
-0.62,-0.98,0.2077781540412578
-0.6,-0.98,0.14104762056986334
-0.5800000000000001,-0.98,0.07209268186431786
-0.56,-0.98,0.002000798499691373
-0.54,-0.98,-0.06812263865249434
-0.52,-0.98,-0.13717174109863842
-0.5,-0.98,-0.2040575632452308
-0.48,-0.98,-0.2677252757213663
-0.45999999999999996,-0.98,-0.32717080066804816
-0.43999999999999995,-0.98,-0.381456646645832
-0.42000000000000004,-0.98,-0.4297266934348559
-0.4,-0.98,-0.4712196935621286
-0.38,-0.98,-0.5052812776289259
-0.36,-0.98,-0.5313742741071104
-0.33999999999999997,-0.98,-0.5490871808550206
-0.31999999999999995,-0.98,-0.5581406547520641
-0.29999999999999993,-0.98,-0.5583919171066017
-0.28,-0.98,-0.549837005361206
-0.26,-0.98,-0.5326108355845579
-0.24,-0.98,-0.5069850747644506
-0.21999999999999997,-0.98,-0.4733638564571041
-0.19999999999999996,-0.98,-0.4322774073595678
-0.17999999999999994,-0.98,-0.3843736853179651
-0.16000000000000003,-0.98,-0.3304081606451881
-0.14,-0.98,-0.27123190190276836
-0.12,-0.98,-0.2077781540412577
-0.09999999999999998,-0.98,-0.14104762056986325
-0.07999999999999996,-0.98,-0.07209268186431779
-0.05999999999999994,-0.98,-0.0020007984996913385
-0.040000000000000036,-0.98,0.06812263865249432
-0.020000000000000018,-0.98,0.13717174109863836
0.0,-0.98,0.20405756324523067
0.020000000000000018,-0.98,0.2677252757213663
0.040000000000000036,-0.98,0.32717080066804805
0.06000000000000005,-0.98,0.3814566466458319
0.08000000000000007,-0.98,0.42972669343485587
0.10000000000000009,-0.98,0.4712196935621285
0.1200000000000001,-0.98,0.5052812776289257
0.14000000000000012,-0.98,0.5313742741071104
0.15999999999999992,-0.98,0.5490871808550205
0.17999999999999994,-0.98,0.5581406547520639
0.19999999999999996,-0.98,0.5583919171066016
0.21999999999999997,-0.98,0.5498370053612057
0.24,-0.98,0.5326108355845578
0.26,-0.98,0.5069850747644504
0.28,-0.98,0.4733638564571039
0.30000000000000004,-0.98,0.4322774073595679
0.32000000000000006,-0.98,0.38437368531796506
0.3400000000000001,-0.98,0.3304081606451881
0.3600000000000001,-0.98,0.27123190190276836
0.3800000000000001,-0.98,0.20777815404125766
0.40000000000000013,-0.98,0.14104762056986322
0.41999999999999993,-0.98,0.07209268186431775
0.43999999999999995,-0.98,0.0020007984996913315
0.45999999999999996,-0.98,-0.0681226386524943
0.48,-0.98,-0.13717174109863836
0.5,-0.98,-0.20405756324523075
0.52,-0.98,-0.2677252757213663
0.54,-0.98,-0.3271708006680481
0.56,-0.98,-0.381456646645832
0.5800000000000001,-0.98,-0.42972669343485576
0.6000000000000001,-0.98,-0.4712196935621285
0.6200000000000001,-0.98,-0.5052812776289258
0.6400000000000001,-0.98,-0.5313742741071104
0.6600000000000001,-0.98,-0.5490871808550203
0.6799999999999999,-0.98,-0.558140654752064
0.7,-0.98,-0.5583919171066016
0.72,-0.98,-0.5498370053612058
0.74,-0.98,-0.5326108355845578
0.76,-0.98,-0.5069850747644504
0.78,-0.98,-0.47336385645710394
0.8,-0.98,-0.43227740735956793
0.8200000000000001,-0.98,-0.384373685317965
0.8400000000000001,-0.98,-0.3304081606451881
0.8600000000000001,-0.98,-0.2712319019027684
0.8800000000000001,-0.98,-0.2077781540412577
0.9000000000000001,-0.98,-0.14104762056986334
0.9199999999999999,-0.98,-0.0720926818643179
0.94,-0.98,-0.0020007984996914495
0.96,-0.98,0.06812263865249424
0.98,-0.98,0.1371717410986383
1.0,-0.98,0.2040575632452307

-1.0,-0.96,0.25637072958831286
-0.98,-0.96,0.32717080066804805
-0.96,-0.96,0.3928111927788854
-0.94,-0.96,0.4522567177255676
-0.92,-0.96,0.5045698840686499
-0.9,-0.96,0.5489256819245304
-0.88,-0.96,0.5846245938641534
-0.86,-0.96,0.6111036267207345
-0.84,-0.96,0.6279451903283175
-0.8200000000000001,-0.96,0.6348836831681487
-0.8,-0.96,0.6318096810632894
-0.78,-0.96,0.6187716628632532
-0.76,-0.96,0.5959752459035896
-0.74,-0.96,0.5637799432976711
-0.72,-0.96,0.5226934942001348
-0.7,-0.96,0.473363856457104
-0.6799999999999999,-0.96,0.4165689879238834
-0.6599999999999999,-0.96,0.35320457760485174
-0.64,-0.96,0.2842699201028044
-0.62,-0.96,0.21085215614611635
-0.6,-0.96,0.1341091277300315
-0.5800000000000001,-0.96,0.055251118256734254
-0.56,-0.96,-0.024478234356889884
-0.54,-0.96,-0.10382155059211742
-0.52,-0.96,-0.18152753895451926
-0.5,-0.96,-0.25637072958831286
-0.48,-0.96,-0.32717080066804816
-0.45999999999999996,-0.96,-0.39281119277888543
-0.43999999999999995,-0.96,-0.4522567177255675
-0.42000000000000004,-0.96,-0.5045698840686499
-0.4,-0.96,-0.5489256819245304
-0.38,-0.96,-0.5846245938641534
-0.36,-0.96,-0.6111036267207346
-0.33999999999999997,-0.96,-0.6279451903283175
-0.31999999999999995,-0.96,-0.6348836831681488
-0.29999999999999993,-0.96,-0.6318096810632896
-0.28,-0.96,-0.6187716628632535
-0.26,-0.96,-0.5959752459035897
-0.24,-0.96,-0.5637799432976711
-0.21999999999999997,-0.96,-0.5226934942001348
-0.19999999999999996,-0.96,-0.47336385645710405
-0.17999999999999994,-0.96,-0.4165689879238835
-0.16000000000000003,-0.96,-0.35320457760485163
-0.14,-0.96,-0.2842699201028043
-0.12,-0.96,-0.21085215614611627
-0.09999999999999998,-0.96,-0.1341091277300314
-0.07999999999999996,-0.96,-0.05525111825673419
-0.05999999999999994,-0.96,0.024478234356889877
-0.040000000000000036,-0.96,0.1038215505921174
-0.020000000000000018,-0.96,0.18152753895451915
0.0,-0.96,0.2563707295883128
0.020000000000000018,-0.96,0.3271708006680481
0.040000000000000036,-0.96,0.3928111927788853
0.06000000000000005,-0.96,0.45225671772556747
0.08000000000000007,-0.96,0.5045698840686496
0.10000000000000009,-0.96,0.5489256819245304
0.1200000000000001,-0.96,0.5846245938641533
0.14000000000000012,-0.96,0.6111036267207343
0.15999999999999992,-0.96,0.6279451903283172
0.17999999999999994,-0.96,0.6348836831681487
0.19999999999999996,-0.96,0.6318096810632893
0.21999999999999997,-0.96,0.6187716628632535
0.24,-0.96,0.5959752459035895
0.26,-0.96,0.5637799432976709
0.28,-0.96,0.5226934942001348
0.30000000000000004,-0.96,0.4733638564571041
0.32000000000000006,-0.96,0.41656898792388347
0.3400000000000001,-0.96,0.3532045776048517
0.3600000000000001,-0.96,0.2842699201028042
0.3800000000000001,-0.96,0.2108521561461162
0.40000000000000013,-0.96,0.1341091277300313
0.41999999999999993,-0.96,0.05525111825673416
0.43999999999999995,-0.96,-0.02447823435688987
0.45999999999999996,-0.96,-0.10382155059211738
0.48,-0.96,-0.1815275389545192
0.5,-0.96,-0.2563707295883128
0.52,-0.96,-0.3271708006680481
0.54,-0.96,-0.39281119277888543
0.56,-0.96,-0.45225671772556736
0.5800000000000001,-0.96,-0.5045698840686496
0.6000000000000001,-0.96,-0.5489256819245305
0.6200000000000001,-0.96,-0.5846245938641534
0.6400000000000001,-0.96,-0.6111036267207341
0.6600000000000001,-0.96,-0.6279451903283173
0.6799999999999999,-0.96,-0.6348836831681487
0.7,-0.96,-0.6318096810632894
0.72,-0.96,-0.6187716628632535
0.74,-0.96,-0.5959752459035895
0.76,-0.96,-0.563779943297671
0.78,-0.96,-0.5226934942001348
0.8,-0.96,-0.47336385645710394
0.8200000000000001,-0.96,-0.4165689879238833
0.8400000000000001,-0.96,-0.3532045776048517
0.8600000000000001,-0.96,-0.2842699201028043
0.8800000000000001,-0.96,-0.2108521561461163
0.9000000000000001,-0.96,-0.1341091277300315
0.9199999999999999,-0.96,-0.055251118256734316
0.94,-0.96,0.024478234356889794
0.96,-0.96,0.10382155059211731
0.98,-0.96,0.18152753895451915
1.0,-0.96,0.25637072958831286

-1.0,-0.94,0.3046407763773365
-0.98,-0.94,0.3814566466458319
-0.96,-0.94,0.4522567177255675
-0.94,-0.94,0.5159244302017033
-0.92,-0.94,0.5714557062152421
-0.9,-0.94,0.6179747843706745
-0.88,-0.94,0.6547480310163392
-0.86,-0.94,0.6811955100853607
-0.84,-0.94,0.6969001290338628
-0.8200000000000001,-0.94,0.7016142166395428
-0.8,-0.94,0.6952634289248
-0.78,-0.94,0.677947921605673
-0.76,-0.94,0.6499407705763665
-0.74,-0.94,0.6116836653392739
-0.72,-0.94,0.563779943297671
-0.7,-0.94,0.5069850747644502
-0.6799999999999999,-0.94,0.44219474874399073
-0.6599999999999999,-0.94,0.3704307473814998
-0.64,-0.94,0.2928248318481997
-0.62,-0.94,0.21060089379157806
-0.6,-0.94,0.12505565383298722
-0.5800000000000001,-0.94,0.03753821150882369
-0.56,-0.94,-0.05057123083507456
-0.54,-0.94,-0.13788313465891477
-0.52,-0.94,-0.22302053908179176
-0.5,-0.94,-0.3046407763773366
-0.48,-0.94,-0.381456646645832
-0.45999999999999996,-0.94,-0.45225671772556747
-0.43999999999999995,-0.94,-0.5159244302017034
-0.42000000000000004,-0.94,-0.5714557062152421
-0.4,-0.94,-0.6179747843706745
-0.38,-0.94,-0.6547480310163392
-0.36,-0.94,-0.6811955100853607
-0.33999999999999997,-0.94,-0.6969001290338628
-0.31999999999999995,-0.94,-0.7016142166395428
-0.29999999999999993,-0.94,-0.6952634289248002
-0.28,-0.94,-0.6779479216056731
-0.26,-0.94,-0.6499407705763667
-0.24,-0.94,-0.6116836653392738
-0.21999999999999997,-0.94,-0.563779943297671
-0.19999999999999996,-0.94,-0.5069850747644505
-0.17999999999999994,-0.94,-0.4421947487439907
-0.16000000000000003,-0.94,-0.3704307473814996
-0.14,-0.94,-0.29282483184819963
-0.12,-0.94,-0.2106008937915779
-0.09999999999999998,-0.94,-0.1250556538329871
-0.07999999999999996,-0.94,-0.03753821150882369
-0.05999999999999994,-0.94,0.050571230835074546
-0.040000000000000036,-0.94,0.13788313465891475
-0.020000000000000018,-0.94,0.22302053908179173
0.0,-0.94,0.30464077637733655
0.020000000000000018,-0.94,0.38145664664583184
0.040000000000000036,-0.94,0.45225671772556747
0.06000000000000005,-0.94,0.5159244302017032
0.08000000000000007,-0.94,0.571455706215242
0.10000000000000009,-0.94,0.6179747843706744
0.1200000000000001,-0.94,0.6547480310163389
0.14000000000000012,-0.94,0.6811955100853605
0.15999999999999992,-0.94,0.6969001290338627
0.17999999999999994,-0.94,0.7016142166395427
0.19999999999999996,-0.94,0.6952634289248002
0.21999999999999997,-0.94,0.677947921605673
0.24,-0.94,0.6499407705763661
0.26,-0.94,0.6116836653392738
0.28,-0.94,0.563779943297671
0.30000000000000004,-0.94,0.5069850747644504
0.32000000000000006,-0.94,0.4421947487439906
0.3400000000000001,-0.94,0.3704307473814996
0.3600000000000001,-0.94,0.2928248318481995
0.3800000000000001,-0.94,0.21060089379157781
0.40000000000000013,-0.94,0.12505565383298703
0.41999999999999993,-0.94,0.03753821150882368
0.43999999999999995,-0.94,-0.05057123083507456
0.45999999999999996,-0.94,-0.13788313465891475
0.48,-0.94,-0.22302053908179176
0.5,-0.94,-0.30464077637733655
0.52,-0.94,-0.381456646645832
0.54,-0.94,-0.4522567177255674
0.56,-0.94,-0.5159244302017031
0.5800000000000001,-0.94,-0.5714557062152422
0.6000000000000001,-0.94,-0.6179747843706747
0.6200000000000001,-0.94,-0.6547480310163388
0.6400000000000001,-0.94,-0.6811955100853604
0.6600000000000001,-0.94,-0.6969001290338628
0.6799999999999999,-0.94,-0.7016142166395427
0.7,-0.94,-0.6952634289248001
0.72,-0.94,-0.677947921605673
0.74,-0.94,-0.6499407705763665
0.76,-0.94,-0.6116836653392737
0.78,-0.94,-0.5637799432976709
0.8,-0.94,-0.5069850747644501
0.8200000000000001,-0.94,-0.4421947487439906
0.8400000000000001,-0.94,-0.37043074738149967
0.8600000000000001,-0.94,-0.2928248318481996
0.8800000000000001,-0.94,-0.210600893791578
0.9000000000000001,-0.94,-0.12505565383298725
0.9199999999999999,-0.94,-0.03753821150882376
0.94,-0.94,0.05057123083507446
0.96,-0.94,0.13788313465891466
0.98,-0.94,0.22302053908179176
1.0,-0.94,0.3046407763773365

-1.0,-0.92,0.34810645613931096
-0.98,-0.92,0.42972669343485587
-0.96,-0.92,0.5045698840686497
-0.94,-0.92,0.5714557062152421
-0.92,-0.92,0.6293293305037281
-0.9,-0.92,0.6772780553070508
-0.88,-0.92,0.7145457005918818
-0.86,-0.92,0.7405445333294676
-0.84,-0.92,0.7548645363965861
-0.8200000000000001,-0.92,0.7572798747905138
-0.8,-0.92,0.7477524571819261
-0.78,-0.92,0.7264325366379131
-0.76,-0.92,0.6936563410413571
-0.74,-0.92,0.6499407705763662
-0.72,-0.92,0.5959752459035892
-0.7,-0.92,0.5326108355845577
-0.6799999999999999,-0.92,0.4608468342220667
-0.6599999999999999,-0.92,0.38181500298733867
-0.64,-0.92,0.2967617210702734
-0.62,-0.92,0.2070283295350705
-0.6,-0.92,0.11402997757037021
-0.5800000000000001,-0.92,0.019233304741178417
-0.56,-0.92,-0.07586668879320115
-0.54,-0.92,-0.16977021932474884
-0.52,-0.92,-0.26099637208173204
-0.5,-0.92,-0.348106456139311
-0.48,-0.92,-0.4297266934348559
-0.45999999999999996,-0.92,-0.5045698840686498
-0.43999999999999995,-0.92,-0.5714557062152422
-0.42000000000000004,-0.92,-0.629329330503728
-0.4,-0.92,-0.6772780553070507
-0.38,-0.92,-0.7145457005918818
-0.36,-0.92,-0.7405445333294675
-0.33999999999999997,-0.92,-0.7548645363965861
-0.31999999999999995,-0.92,-0.7572798747905141
-0.29999999999999993,-0.92,-0.7477524571819261
-0.28,-0.92,-0.7264325366379134
-0.26,-0.92,-0.693656341041357
-0.24,-0.92,-0.6499407705763663
-0.21999999999999997,-0.92,-0.5959752459035895
-0.19999999999999996,-0.92,-0.5326108355845576
-0.17999999999999994,-0.92,-0.46084683422206657
-0.16000000000000003,-0.92,-0.3818150029873386
-0.14,-0.92,-0.2967617210702732
-0.12,-0.92,-0.20702832953507033
-0.09999999999999998,-0.92,-0.11402997757037019
-0.07999999999999996,-0.92,-0.019233304741178386
-0.05999999999999994,-0.92,0.07586668879320115
-0.040000000000000036,-0.92,0.1697702193247488
-0.020000000000000018,-0.92,0.260996372081732
0.0,-0.92,0.34810645613931085
0.020000000000000018,-0.92,0.4297266934348559
0.040000000000000036,-0.92,0.5045698840686496
0.06000000000000005,-0.92,0.571455706215242
0.08000000000000007,-0.92,0.629329330503728
0.10000000000000009,-0.92,0.6772780553070507
0.1200000000000001,-0.92,0.7145457005918816
0.14000000000000012,-0.92,0.7405445333294675
0.15999999999999992,-0.92,0.7548645363965862
0.17999999999999994,-0.92,0.757279874790514
0.19999999999999996,-0.92,0.7477524571819262
0.21999999999999997,-0.92,0.7264325366379129
0.24,-0.92,0.6936563410413571
0.26,-0.92,0.6499407705763663
0.28,-0.92,0.5959752459035894
0.30000000000000004,-0.92,0.5326108355845576
0.32000000000000006,-0.92,0.46084683422206657
0.3400000000000001,-0.92,0.3818150029873385
0.3600000000000001,-0.92,0.2967617210702731
0.3800000000000001,-0.92,0.2070283295350702
0.40000000000000013,-0.92,0.11402997757037012
0.41999999999999993,-0.92,0.019233304741178348
0.43999999999999995,-0.92,-0.07586668879320116
0.45999999999999996,-0.92,-0.16977021932474884
0.48,-0.92,-0.260996372081732
0.5,-0.92,-0.348106456139311
0.52,-0.92,-0.42972669343485587
0.54,-0.92,-0.5045698840686496
0.56,-0.92,-0.5714557062152422
0.5800000000000001,-0.92,-0.6293293305037281
0.6000000000000001,-0.92,-0.6772780553070505
0.6200000000000001,-0.92,-0.7145457005918816
0.6400000000000001,-0.92,-0.7405445333294675
0.6600000000000001,-0.92,-0.7548645363965859
0.6799999999999999,-0.92,-0.7572798747905138
0.7,-0.92,-0.7477524571819262
0.72,-0.92,-0.7264325366379131
0.74,-0.92,-0.6936563410413569
0.76,-0.92,-0.6499407705763662
0.78,-0.92,-0.5959752459035891
0.8,-0.92,-0.5326108355845575
0.8200000000000001,-0.92,-0.4608468342220665
0.8400000000000001,-0.92,-0.38181500298733856
0.8600000000000001,-0.92,-0.29676172107027327
0.8800000000000001,-0.92,-0.20702832953507047
0.9000000000000001,-0.92,-0.11402997757037023
0.9199999999999999,-0.92,-0.019233304741178476
0.94,-0.92,0.07586668879320105
0.96,-0.92,0.1697702193247488
0.98,-0.92,0.260996372081732
1.0,-0.92,0.34810645613931096

-1.0,-0.9,0.38608228913925124
-0.98,-0.9,0.47121969356212845
-0.96,-0.9,0.5489256819245305
-0.94,-0.9,0.6179747843706745
-0.92,-0.9,0.6772780553070507
-0.9,-0.9,0.7259002467249352
-0.88,-0.9,0.7630745576201792
-0.86,-0.9,0.7882147269031075
-0.84,-0.9,0.8009242790861186
-0.8200000000000001,-0.9,0.8010027769389692
-0.8,-0.9,0.7884489825036268
-0.78,-0.9,0.7634608766176102
-0.76,-0.9,0.7264325366379126
-0.74,-0.9,0.6779479216056724
-0.72,-0.9,0.6187716628632528
-0.7,-0.9,0.5498370053612055
-0.6799999999999999,-0.9,0.4722310898279055
-0.6599999999999999,-0.9,0.38717780791084017
-0.64,-0.9,0.29601850067420943
-0.62,-0.9,0.20019080484906554
-0.6,-0.9,0.10120598044326173
-0.5800000000000001,-0.9,0.0006250772683454187
-0.56,-0.9,-0.09996568374849578
-0.54,-0.9,-0.19897992621601834
-0.52,-0.9,-0.2948561363822681
-0.5,-0.9,-0.38608228913925136
-0.48,-0.9,-0.47121969356212867
-0.45999999999999996,-0.9,-0.5489256819245306
-0.43999999999999995,-0.9,-0.6179747843706747
-0.42000000000000004,-0.9,-0.6772780553070507
-0.4,-0.9,-0.7259002467249355
-0.38,-0.9,-0.7630745576201792
-0.36,-0.9,-0.7882147269031073
-0.33999999999999997,-0.9,-0.800924279086119
-0.31999999999999995,-0.9,-0.8010027769389693
-0.29999999999999993,-0.9,-0.788448982503627
-0.28,-0.9,-0.7634608766176099
-0.26,-0.9,-0.7264325366379127
-0.24,-0.9,-0.6779479216056726
-0.21999999999999997,-0.9,-0.6187716628632529
-0.19999999999999996,-0.9,-0.5498370053612055
-0.17999999999999994,-0.9,-0.47223108982790557
-0.16000000000000003,-0.9,-0.38717780791084
-0.14,-0.9,-0.29601850067420915
-0.12,-0.9,-0.20019080484906548
-0.09999999999999998,-0.9,-0.10120598044326168
-0.07999999999999996,-0.9,-0.0006250772683454014
-0.05999999999999994,-0.9,0.09996568374849578
-0.040000000000000036,-0.9,0.19897992621601834
-0.020000000000000018,-0.9,0.29485613638226793
0.0,-0.9,0.3860822891392513
0.020000000000000018,-0.9,0.4712196935621284
0.040000000000000036,-0.9,0.5489256819245304
0.06000000000000005,-0.9,0.6179747843706745
0.08000000000000007,-0.9,0.6772780553070508
0.10000000000000009,-0.9,0.7259002467249352
0.1200000000000001,-0.9,0.7630745576201792
0.14000000000000012,-0.9,0.7882147269031075
0.15999999999999992,-0.9,0.8009242790861189
0.17999999999999994,-0.9,0.8010027769389694
0.19999999999999996,-0.9,0.7884489825036265
0.21999999999999997,-0.9,0.7634608766176101
0.24,-0.9,0.7264325366379127
0.26,-0.9,0.6779479216056726
0.28,-0.9,0.6187716628632528
0.30000000000000004,-0.9,0.5498370053612054
0.32000000000000006,-0.9,0.47223108982790535
0.3400000000000001,-0.9,0.38717780791084
0.3600000000000001,-0.9,0.2960185006742091
0.3800000000000001,-0.9,0.2001908048490654
0.40000000000000013,-0.9,0.10120598044326158
0.41999999999999993,-0.9,0.0006250772683453667
0.43999999999999995,-0.9,-0.0999656837484958
0.45999999999999996,-0.9,-0.19897992621601834
0.48,-0.9,-0.29485613638226804
0.5,-0.9,-0.38608228913925136
0.52,-0.9,-0.47121969356212845
0.54,-0.9,-0.5489256819245306
0.56,-0.9,-0.6179747843706747
0.5800000000000001,-0.9,-0.6772780553070507
0.6000000000000001,-0.9,-0.725900246724935
0.6200000000000001,-0.9,-0.7630745576201791
0.6400000000000001,-0.9,-0.7882147269031072
0.6600000000000001,-0.9,-0.8009242790861187
0.6799999999999999,-0.9,-0.8010027769389694
0.7,-0.9,-0.7884489825036267
0.72,-0.9,-0.76346087661761
0.74,-0.9,-0.7264325366379126
0.76,-0.9,-0.6779479216056724
0.78,-0.9,-0.6187716628632528
0.8,-0.9,-0.5498370053612053
0.8200000000000001,-0.9,-0.4722310898279054
0.8400000000000001,-0.9,-0.38717780791084017
0.8600000000000001,-0.9,-0.2960185006742093
0.8800000000000001,-0.9,-0.2001908048490655
0.9000000000000001,-0.9,-0.10120598044326172
0.9199999999999999,-0.9,-0.0006250772683455124
0.94,-0.9,0.09996568374849574
0.96,-0.9,0.1989799262160183
0.98,-0.9,0.294856136382268
1.0,-0.9,0.38608228913925124

-1.0,-0.88,0.41796937380508536
-0.98,-0.88,0.5052812776289257
-0.96,-0.88,0.5846245938641534
-0.94,-0.88,0.654748031016339
-0.92,-0.88,0.7145457005918818
-0.9,-0.88,0.7630745576201792
-0.88,-0.88,0.7995692730361611
-0.86,-0.88,0.8234543033768305
-0.84,-0.88,0.8343529674454905
-0.8200000000000001,-0.88,0.8320933867992314
-0.8,-0.88,0.816711196374653
-0.78,-0.88,0.7884489825036262
-0.76,-0.88,0.7477524571819252
-0.74,-0.88,0.6952634289247991
-0.72,-0.88,0.6318096810632886
-0.7,-0.88,0.5583919171066006
-0.6799999999999999,-0.88,0.47616797904997893
-0.6599999999999999,-0.88,0.3864345875147762
-0.64,-0.88,0.2906068916896324
-0.62,-0.88,0.19019615158240072
-0.6,-0.88,0.0867859045470408
-0.5800000000000001,-0.88,-0.01799300804641238
-0.56,-0.88,-0.1224881601544717
-0.54,-0.88,-0.225051600806015
-0.52,-0.88,-0.32406584327353766
-0.5,-0.88,-0.41796937380508553
-0.48,-0.88,-0.5052812776289258
-0.45999999999999996,-0.88,-0.5846245938641534
-0.43999999999999995,-0.88,-0.654748031016339
-0.42000000000000004,-0.88,-0.7145457005918818
-0.4,-0.88,-0.7630745576201792
-0.38,-0.88,-0.7995692730361609
-0.36,-0.88,-0.8234543033768307
-0.33999999999999997,-0.88,-0.8343529674454907
-0.31999999999999995,-0.88,-0.8320933867992315
-0.29999999999999993,-0.88,-0.8167111963746526
-0.28,-0.88,-0.7884489825036262
-0.26,-0.88,-0.7477524571819254
-0.24,-0.88,-0.6952634289247991
-0.21999999999999997,-0.88,-0.6318096810632886
-0.19999999999999996,-0.88,-0.5583919171066007
-0.17999999999999994,-0.88,-0.47616797904997876
-0.16000000000000003,-0.88,-0.386434587514776
-0.14,-0.88,-0.29060689168963233
-0.12,-0.88,-0.1901961515824006
-0.09999999999999998,-0.88,-0.08678590454704076
-0.07999999999999996,-0.88,0.017993008046412427
-0.05999999999999994,-0.88,0.12248816015447174
-0.040000000000000036,-0.88,0.2250516008060149
-0.020000000000000018,-0.88,0.32406584327353755
0.0,-0.88,0.4179693738050853
0.020000000000000018,-0.88,0.5052812776289257
0.040000000000000036,-0.88,0.5846245938641534
0.06000000000000005,-0.88,0.654748031016339
0.08000000000000007,-0.88,0.7145457005918818
0.10000000000000009,-0.88,0.7630745576201791
0.1200000000000001,-0.88,0.799569273036161
0.14000000000000012,-0.88,0.8234543033768306
0.15999999999999992,-0.88,0.8343529674454907
0.17999999999999994,-0.88,0.8320933867992312
0.19999999999999996,-0.88,0.816711196374653
0.21999999999999997,-0.88,0.788448982503626
0.24,-0.88,0.7477524571819253
0.26,-0.88,0.6952634289247991
0.28,-0.88,0.6318096810632885
0.30000000000000004,-0.88,0.5583919171066004
0.32000000000000006,-0.88,0.47616797904997876
0.3400000000000001,-0.88,0.38643458751477583
0.3600000000000001,-0.88,0.2906068916896322
0.3800000000000001,-0.88,0.19019615158240044
0.40000000000000013,-0.88,0.08678590454704072
0.41999999999999993,-0.88,-0.017993008046412462
0.43999999999999995,-0.88,-0.12248816015447175
0.45999999999999996,-0.88,-0.225051600806015
0.48,-0.88,-0.32406584327353766
0.5,-0.88,-0.4179693738050855
0.52,-0.88,-0.5052812776289258
0.54,-0.88,-0.5846245938641536
0.56,-0.88,-0.6547480310163392
0.5800000000000001,-0.88,-0.7145457005918816
0.6000000000000001,-0.88,-0.7630745576201791
0.6200000000000001,-0.88,-0.7995692730361609
0.6400000000000001,-0.88,-0.8234543033768307
0.6600000000000001,-0.88,-0.8343529674454906
0.6799999999999999,-0.88,-0.8320933867992313
0.7,-0.88,-0.8167111963746527
0.72,-0.88,-0.788448982503626
0.74,-0.88,-0.7477524571819252
0.76,-0.88,-0.6952634289247991
0.78,-0.88,-0.6318096810632883
0.8,-0.88,-0.5583919171066004
0.8200000000000001,-0.88,-0.4761679790499789
0.8400000000000001,-0.88,-0.3864345875147761
0.8600000000000001,-0.88,-0.29060689168963233
0.8800000000000001,-0.88,-0.1901961515824006
0.9000000000000001,-0.88,-0.08678590454704088
0.9199999999999999,-0.88,0.01799300804641233
0.94,-0.88,0.12248816015447166
0.96,-0.88,0.22505160080601483
0.98,-0.88,0.32406584327353755
1.0,-0.88,0.41796937380508536

-1.0,-0.86,0.44326483176321174
-0.98,-0.86,0.5313742741071102
-0.96,-0.86,0.6111036267207345
-0.94,-0.86,0.6811955100853607
-0.92,-0.86,0.7405445333294675
-0.9,-0.86,0.7882147269031076
-0.88,-0.86,0.8234543033768305
-0.86,-0.86,0.8457075135785442
-0.84,-0.86,0.8546234110899432
-0.8200000000000001,-0.86,0.8500613868811737
-0.8,-0.86,0.8320933867992304
-0.78,-0.86,0.8010027769389678
-0.76,-0.86,0.7572798747905124
-0.74,-0.86,0.701614216639541
-0.72,-0.86,0.6348836831681466
-0.7,-0.86,0.5581406547520616
-0.6799999999999999,-0.86,0.4725954147934713
-0.6599999999999999,-0.86,0.3795970628287712
-0.64,-0.86,0.28061223842296756
-0.62,-0.86,0.17720199138760775
-0.6,-0.86,0.07099716309272672
-0.5800000000000001,-0.86,-0.03632733287577624
-0.56,-0.86,-0.14307892510393155
-0.54,-0.86,-0.24757407721199098
-0.52,-0.86,-0.3481648382288324
-0.5,-0.86,-0.44326483176321196
-0.48,-0.86,-0.5313742741071104
-0.45999999999999996,-0.86,-0.6111036267207344
-0.43999999999999995,-0.86,-0.6811955100853606
-0.42000000000000004,-0.86,-0.7405445333294675
-0.4,-0.86,-0.7882147269031075
-0.38,-0.86,-0.8234543033768306
-0.36,-0.86,-0.8457075135785442
-0.33999999999999997,-0.86,-0.8546234110899431
-0.31999999999999995,-0.86,-0.8500613868811736
-0.29999999999999993,-0.86,-0.8320933867992304
-0.28,-0.86,-0.8010027769389679
-0.26,-0.86,-0.7572798747905124
-0.24,-0.86,-0.701614216639541
-0.21999999999999997,-0.86,-0.6348836831681466
-0.19999999999999996,-0.86,-0.5581406547520616
-0.17999999999999994,-0.86,-0.47259541479347106
-0.16000000000000003,-0.86,-0.37959706282877115
-0.14,-0.86,-0.2806122384229674
-0.12,-0.86,-0.17720199138760773
-0.09999999999999998,-0.86,-0.07099716309272662
-0.07999999999999996,-0.86,0.03632733287577628
-0.05999999999999994,-0.86,0.1430789251039315
-0.040000000000000036,-0.86,0.24757407721199087
-0.020000000000000018,-0.86,0.3481648382288322
0.0,-0.86,0.4432648317632119
0.020000000000000018,-0.86,0.5313742741071104
0.040000000000000036,-0.86,0.6111036267207344
0.06000000000000005,-0.86,0.6811955100853607
0.08000000000000007,-0.86,0.7405445333294673
0.10000000000000009,-0.86,0.7882147269031075
0.1200000000000001,-0.86,0.8234543033768306
0.14000000000000012,-0.86,0.8457075135785443
0.15999999999999992,-0.86,0.854623411089943
0.17999999999999994,-0.86,0.8500613868811737
0.19999999999999996,-0.86,0.8320933867992303
0.21999999999999997,-0.86,0.8010027769389678
0.24,-0.86,0.7572798747905123
0.26,-0.86,0.701614216639541
0.28,-0.86,0.6348836831681465
0.30000000000000004,-0.86,0.5581406547520616
0.32000000000000006,-0.86,0.47259541479347084
0.3400000000000001,-0.86,0.37959706282877104
0.3600000000000001,-0.86,0.28061223842296734
0.3800000000000001,-0.86,0.17720199138760764
0.40000000000000013,-0.86,0.07099716309272655