TITLE = "Solution" 
VARIABLES = "x", "y", "sol" 
ZONE STRANDID=1, SOLUTIONTIME= 0.8600000000000005, I= 101, J =101, DATAPACKING=POINT 
-1.0,-1.0,0.34679064565563633
-0.98,-1.0,0.40561271654470554
-0.96,-1.0,0.4580380325925728
-0.94,-1.0,0.5032398152477975
-0.92,-1.0,0.5405052053956697
-0.9,-1.0,0.569246505572293
-0.88,-1.0,0.5890104483046613
-0.86,-1.0,0.5994853444094785
-0.84,-1.0,0.6005059985177718
-0.8200000000000001,-1.0,0.592056314304545
-0.8,-1.0,0.5742695483374369
-0.78,-1.0,0.5474262085410476
-0.76,-1.0,0.5119496304194002
-0.74,-1.0,0.4683993008021536
-0.72,-1.0,0.41746203440307744
-0.7,-1.0,0.35994114234173297
-0.6799999999999999,-1.0,0.2967437634472435
-0.6599999999999999,-1.0,0.22886655813705922
-0.64,-1.0,0.15737999048679874
-0.62,-1.0,0.08341144637231213
-0.6,-1.0,0.008127453920951312
-0.5800000000000001,-1.0,-0.06728471333384864
-0.56,-1.0,-0.1416357604654344
-0.54,-1.0,-0.21375312704537835
-0.52,-1.0,-0.2824994791218881
-0.5,-1.0,-0.34679064565563644
-0.48,-1.0,-0.40561271654470565
-0.45999999999999996,-1.0,-0.4580380325925729
-0.43999999999999995,-1.0,-0.5032398152477974
-0.42000000000000004,-1.0,-0.5405052053956697
-0.4,-1.0,-0.569246505572293
-0.38,-1.0,-0.5890104483046614
-0.36,-1.0,-0.5994853444094786
-0.33999999999999997,-1.0,-0.6005059985177718
-0.31999999999999995,-1.0,-0.5920563143045452
-0.29999999999999993,-1.0,-0.5742695483374369
-0.28,-1.0,-0.5474262085410477
-0.26,-1.0,-0.5119496304194002
-0.24,-1.0,-0.46839930080215353
-0.21999999999999997,-1.0,-0.4174620344030776
-0.19999999999999996,-1.0,-0.3599411423417331
-0.17999999999999994,-1.0,-0.2967437634472434
-0.16000000000000003,-1.0,-0.22886655813705908
-0.14,-1.0,-0.15737999048679874
-0.12,-1.0,-0.0834114463723121
-0.09999999999999998,-1.0,-0.008127453920951284
-0.07999999999999996,-1.0,0.06728471333384875
-0.05999999999999994,-1.0,0.14163576046543455
-0.040000000000000036,-1.0,0.21375312704537835
-0.020000000000000018,-1.0,0.28249947912188816
0.0,-1.0,0.34679064565563655
0.020000000000000018,-1.0,0.40561271654470576
0.040000000000000036,-1.0,0.458038032592573
0.06000000000000005,-1.0,0.5032398152477976
0.08000000000000007,-1.0,0.5405052053956696
0.10000000000000009,-1.0,0.5692465055722931
0.1200000000000001,-1.0,0.5890104483046613
0.14000000000000012,-1.0,0.5994853444094783
0.15999999999999992,-1.0,0.600505998517772
0.17999999999999994,-1.0,0.5920563143045451
0.19999999999999996,-1.0,0.5742695483374369
0.21999999999999997,-1.0,0.5474262085410476
0.24,-1.0,0.5119496304194002
0.26,-1.0,0.4683993008021537
0.28,-1.0,0.4174620344030775
0.30000000000000004,-1.0,0.3599411423417328
0.32000000000000006,-1.0,0.2967437634472434
0.3400000000000001,-1.0,0.22886655813705906
0.3600000000000001,-1.0,0.15737999048679863
0.3800000000000001,-1.0,0.08341144637231215
0.40000000000000013,-1.0,0.008127453920951249
0.41999999999999993,-1.0,-0.06728471333384872
0.43999999999999995,-1.0,-0.1416357604654345
0.45999999999999996,-1.0,-0.2137531270453784
0.48,-1.0,-0.282499479121888
0.5,-1.0,-0.3467906456556365
0.52,-1.0,-0.40561271654470565
0.54,-1.0,-0.4580380325925728
0.56,-1.0,-0.5032398152477972
0.5800000000000001,-1.0,-0.5405052053956695
0.6000000000000001,-1.0,-0.5692465055722928
0.6200000000000001,-1.0,-0.5890104483046615
0.6400000000000001,-1.0,-0.5994853444094785
0.6600000000000001,-1.0,-0.6005059985177719
0.6799999999999999,-1.0,-0.592056314304545
0.7,-1.0,-0.5742695483374369
0.72,-1.0,-0.5474262085410474
0.74,-1.0,-0.5119496304194004
0.76,-1.0,-0.46839930080215375
0.78,-1.0,-0.4174620344030776
0.8,-1.0,-0.35994114234173286
0.8200000000000001,-1.0,-0.29674376344724324
0.8400000000000001,-1.0,-0.22886655813705906
0.8600000000000001,-1.0,-0.15737999048679863
0.8800000000000001,-1.0,-0.08341144637231207
0.9000000000000001,-1.0,-0.008127453920951187
0.9199999999999999,-1.0,0.0672847133338488
0.94,-1.0,0.14163576046543452
0.96,-1.0,0.21375312704537852
0.98,-1.0,0.282499479121888
1.0,-1.0,0.34679064565563633

-1.0,-0.98,0.4056127165447056
-0.98,-0.98,0.46598963414531136
-0.96,-0.98,0.5190176168467315
-0.94,-0.98,0.563860381684382
-0.92,-0.98,0.5998107314690048
-0.9,-0.98,0.6263017077087978
-0.88,-0.98,0.642915531883518
-0.86,-0.98,0.6493901940613119
-0.84,-0.98,0.6456235849518611
-0.8200000000000001,-0.98,0.6316751062308844
-0.8,-0.98,0.6077647337402289
-0.78,-0.98,0.5742695483374364
-0.76,-0.98,0.5317177891053628
-0.74,-0.98,0.4807805227062867
-0.72,-0.98,0.42226106025976906
-0.7,-0.98,0.35708228864642455
-0.6799999999999999,-0.98,0.28627211603050634
-0.6599999999999999,-0.98,0.21094726113411433
-0.64,-0.98,0.13229564191585155
-0.62,-0.98,0.051557641394990084
-0.6,-0.98,-0.02999345392971262
-0.5800000000000001,-0.98,-0.11107153456872292
-0.56,-0.98,-0.19039795075666613
-0.54,-0.98,-0.2667216775229541
-0.52,-0.98,-0.33883904410289784
-0.5,-0.98,-0.40561271654470565
-0.48,-0.98,-0.4659896341453114
-0.45999999999999996,-0.98,-0.5190176168467314
-0.43999999999999995,-0.98,-0.5638603816843819
-0.42000000000000004,-0.98,-0.5998107314690047
-0.4,-0.98,-0.6263017077087978
-0.38,-0.98,-0.642915531883518
-0.36,-0.98,-0.6493901940613118
-0.33999999999999997,-0.98,-0.6456235849518611
-0.31999999999999995,-0.98,-0.6316751062308844
-0.29999999999999993,-0.98,-0.6077647337402291
-0.28,-0.98,-0.5742695483374364
-0.26,-0.98,-0.5317177891053628
-0.24,-0.98,-0.4807805227062868
-0.21999999999999997,-0.98,-0.4222610602597691
-0.19999999999999996,-0.98,-0.3570822886464244
-0.17999999999999994,-0.98,-0.2862721160305062
-0.16000000000000003,-0.98,-0.21094726113411433
-0.14,-0.98,-0.13229564191585155
-0.12,-0.98,-0.05155764139499007
-0.09999999999999998,-0.98,0.029993453929712716
-0.07999999999999996,-0.98,0.11107153456872307
-0.05999999999999994,-0.98,0.19039795075666613
-0.040000000000000036,-0.98,0.26672167752295417
-0.020000000000000018,-0.98,0.33883904410289795
0.0,-0.98,0.40561271654470576
0.020000000000000018,-0.98,0.4659896341453115
0.040000000000000036,-0.98,0.5190176168467315
0.06000000000000005,-0.98,0.563860381684382
0.08000000000000007,-0.98,0.5998107314690048
0.10000000000000009,-0.98,0.6263017077087979
0.1200000000000001,-0.98,0.6429155318835177
0.14000000000000012,-0.98,0.6493901940613122
0.15999999999999992,-0.98,0.6456235849518612
0.17999999999999994,-0.98,0.6316751062308845
0.19999999999999996,-0.98,0.6077647337402289
0.21999999999999997,-0.98,0.5742695483374365
0.24,-0.98,0.5317177891053629
0.26,-0.98,0.4807805227062867
0.28,-0.98,0.4222610602597689
0.30000000000000004,-0.98,0.35708228864642444
0.32000000000000006,-0.98,0.2862721160305062
0.3400000000000001,-0.98,0.21094726113411422
0.3600000000000001,-0.98,0.13229564191585166
0.3800000000000001,-0.98,0.05155764139499003
0.40000000000000013,-0.98,-0.029993453929712702
0.41999999999999993,-0.98,-0.11107153456872303
0.43999999999999995,-0.98,-0.19039795075666616
0.45999999999999996,-0.98,-0.26672167752295406
0.48,-0.98,-0.3388390441028979
0.5,-0.98,-0.4056127165447056
0.52,-0.98,-0.46598963414531136
0.54,-0.98,-0.5190176168467312
0.56,-0.98,-0.5638603816843818
0.5800000000000001,-0.98,-0.5998107314690045
0.6000000000000001,-0.98,-0.6263017077087979
0.6200000000000001,-0.98,-0.6429155318835178
0.6400000000000001,-0.98,-0.649390194061312
0.6600000000000001,-0.98,-0.645623584951861
0.6799999999999999,-0.98,-0.6316751062308844
0.7,-0.98,-0.6077647337402288
0.72,-0.98,-0.5742695483374366
0.74,-0.98,-0.531717789105363
0.76,-0.98,-0.48078052270628685
0.78,-0.98,-0.42226106025976895
0.8,-0.98,-0.3570822886464243
0.8200000000000001,-0.98,-0.2862721160305062
0.8400000000000001,-0.98,-0.21094726113411422
0.8600000000000001,-0.98,-0.13229564191585153
0.8800000000000001,-0.98,-0.05155764139498996
0.9000000000000001,-0.98,0.029993453929712786
0.9199999999999999,-0.98,0.11107153456872304
0.94,-0.98,0.19039795075666627
0.96,-0.98,0.26672167752295406
0.98,-0.98,0.3388390441028978
1.0,-0.98,0.4056127165447056

-1.0,-0.96,0.45803803259257275
-0.98,-0.96,0.5190176168467314
-0.96,-0.96,0.5718119832371206
-0.94,-0.96,0.6155885330679387
-0.92,-0.96,0.6496568839975102
-0.9,-0.96,0.6734797577802298
-0.88,-0.96,0.6866814534654486
-0.86,-0.96,0.6890537724259004
-0.84,-0.96,0.6805593017744241
-0.8200000000000001,-0.96,0.6613320043875446
-0.8,-0.96,0.6316751062308836
-0.78,-0.96,0.592056314304544
-0.76,-0.96,0.5431004406243226
-0.74,-0.96,0.4855795485629781
-0.72,-0.96,0.4204007769496335
-0.7,-0.96,0.3485920339485422
-0.6799999999999999,-0.96,0.2712857863332953
-0.6599999999999999,-0.96,0.18970119980929875
-0.64,-0.96,0.10512491204230576
-0.62,-0.96,0.018890741613826912
-0.6,-0.96,-0.06764134709468408
-0.5800000000000001,-0.96,-0.15310669135253
-0.56,-0.96,-0.2361574516262425
-0.54,-0.96,-0.3154838678141856
-0.52,-0.96,-0.3898349149457717
-0.5,-0.96,-0.45803803259257275
-0.48,-0.96,-0.5190176168467314
-0.45999999999999996,-0.96,-0.5718119832371206
-0.43999999999999995,-0.96,-0.6155885330679386
-0.42000000000000004,-0.96,-0.6496568839975101
-0.4,-0.96,-0.6734797577802298
-0.38,-0.96,-0.6866814534654484
-0.36,-0.96,-0.6890537724259004
-0.33999999999999997,-0.96,-0.6805593017744241
-0.31999999999999995,-0.96,-0.6613320043875447
-0.29999999999999993,-0.96,-0.6316751062308837
-0.28,-0.96,-0.5920563143045439
-0.26,-0.96,-0.5431004406243227
-0.24,-0.96,-0.48557954856297814
-0.21999999999999997,-0.96,-0.42040077694963335
-0.19999999999999996,-0.96,-0.3485920339485421
-0.17999999999999994,-0.96,-0.2712857863332953
-0.16000000000000003,-0.96,-0.18970119980929875
-0.14,-0.96,-0.10512491204230577
-0.12,-0.96,-0.01889074161382685
-0.09999999999999998,-0.96,0.06764134709468422
-0.07999999999999996,-0.96,0.15310669135253
-0.05999999999999994,-0.96,0.23615745162624252
-0.040000000000000036,-0.96,0.3154838678141857
-0.020000000000000018,-0.96,0.3898349149457718
0.0,-0.96,0.45803803259257286
0.020000000000000018,-0.96,0.5190176168467314
0.040000000000000036,-0.96,0.5718119832371206
0.06000000000000005,-0.96,0.6155885330679387
0.08000000000000007,-0.96,0.6496568839975103
0.10000000000000009,-0.96,0.6734797577802296
0.1200000000000001,-0.96,0.6866814534654488
0.14000000000000012,-0.96,0.6890537724259004
0.15999999999999992,-0.96,0.6805593017744245
0.17999999999999994,-0.96,0.6613320043875446
0.19999999999999996,-0.96,0.6316751062308837
0.21999999999999997,-0.96,0.5920563143045439
0.24,-0.96,0.5431004406243226
0.26,-0.96,0.4855795485629779
0.28,-0.96,0.42040077694963346
0.30000000000000004,-0.96,0.3485920339485421
0.32000000000000006,-0.96,0.2712857863332952
0.3400000000000001,-0.96,0.1897011998092989
0.3600000000000001,-0.96,0.10512491204230573
0.3800000000000001,-0.96,0.01889074161382685
0.40000000000000013,-0.96,-0.06764134709468421
0.41999999999999993,-0.96,-0.15310669135253002
0.43999999999999995,-0.96,-0.23615745162624244
0.45999999999999996,-0.96,-0.3154838678141857
0.48,-0.96,-0.38983491494577166
0.5,-0.96,-0.45803803259257275
0.52,-0.96,-0.5190176168467312
0.54,-0.96,-0.5718119832371205
0.56,-0.96,-0.6155885330679385
0.5800000000000001,-0.96,-0.6496568839975104
0.6000000000000001,-0.96,-0.6734797577802297
0.6200000000000001,-0.96,-0.6866814534654487
0.6400000000000001,-0.96,-0.6890537724259002
0.6600000000000001,-0.96,-0.6805593017744241
0.6799999999999999,-0.96,-0.6613320043875446
0.7,-0.96,-0.6316751062308839
0.72,-0.96,-0.5920563143045442
0.74,-0.96,-0.5431004406243228
0.76,-0.96,-0.4855795485629779
0.78,-0.96,-0.4204007769496333
0.8,-0.96,-0.34859203394854205
0.8200000000000001,-0.96,-0.2712857863332952
0.8400000000000001,-0.96,-0.1897011998092987
0.8600000000000001,-0.96,-0.10512491204230563
0.8800000000000001,-0.96,-0.018890741613826752
0.9000000000000001,-0.96,0.06764134709468422
0.9199999999999999,-0.96,0.15310669135253013
0.94,-0.96,0.23615745162624244
0.96,-0.96,0.3154838678141856
0.98,-0.96,0.38983491494577166
1.0,-0.96,0.45803803259257275

-1.0,-0.94,0.5032398152477973
-0.98,-0.94,0.5638603816843819
-0.96,-0.94,0.6155885330679386
-0.94,-0.94,0.6576084855502489
-0.92,-0.94,0.6892575593791639
-0.9,-0.94,0.7100366297541613
-0.88,-0.94,0.7196179983226124
-0.86,-0.94,0.7178505611785604
-0.84,-0.94,0.7047621918615834
-0.8200000000000001,-0.94,0.6805593017744231
-0.8,-0.94,0.6456235849518592
-0.78,-0.94,0.6005059985177695
-0.76,-0.94,0.5459180737621588
-0.74,-0.94,0.4827206948676694
-0.72,-0.94,0.4119105222517511
-0.7,-0.94,0.33460427463650433
-0.6799999999999999,-0.94,0.25202111772733476
-0.6599999999999999,-0.94,0.16546343724148685
-0.64,-0.94,0.0762962995072742
-0.62,-0.94,-0.014074076447368317
-0.6,-0.94,-0.10422249580899033
-0.5800000000000001,-0.94,-0.19272726415220345
-0.56,-0.94,-0.27819260841004934
-0.54,-0.94,-0.35927068904906007
-0.52,-0.94,-0.4346828563038604
-0.5,-0.94,-0.5032398152477973
-0.48,-0.94,-0.5638603816843819
-0.45999999999999996,-0.94,-0.6155885330679386
-0.43999999999999995,-0.94,-0.6576084855502488
-0.42000000000000004,-0.94,-0.6892575593791639
-0.4,-0.94,-0.7100366297541609
-0.38,-0.94,-0.7196179983226123
-0.36,-0.94,-0.7178505611785604
-0.33999999999999997,-0.94,-0.7047621918615835
-0.31999999999999995,-0.94,-0.6805593017744231
-0.29999999999999993,-0.94,-0.6456235849518593
-0.28,-0.94,-0.6005059985177695
-0.26,-0.94,-0.5459180737621588
-0.24,-0.94,-0.48272069486766916
-0.21999999999999997,-0.94,-0.4119105222517511
-0.19999999999999996,-0.94,-0.33460427463650433
-0.17999999999999994,-0.94,-0.25202111772733476
-0.16000000000000003,-0.94,-0.1654634372414869
-0.14,-0.94,-0.07629629950727419
-0.12,-0.94,0.014074076447368435
-0.09999999999999998,-0.94,0.10422249580899032
-0.07999999999999996,-0.94,0.19272726415220354
-0.05999999999999994,-0.94,0.2781926084100495
-0.040000000000000036,-0.94,0.35927068904906023
-0.020000000000000018,-0.94,0.4346828563038605
0.0,-0.94,0.5032398152477972
0.020000000000000018,-0.94,0.563860381684382
0.040000000000000036,-0.94,0.6155885330679387
0.06000000000000005,-0.94,0.657608485550249
0.08000000000000007,-0.94,0.6892575593791638
0.10000000000000009,-0.94,0.7100366297541614
0.1200000000000001,-0.94,0.7196179983226123
0.14000000000000012,-0.94,0.7178505611785607
0.15999999999999992,-0.94,0.7047621918615834
0.17999999999999994,-0.94,0.6805593017744231
0.19999999999999996,-0.94,0.6456235849518593
0.21999999999999997,-0.94,0.6005059985177694
0.24,-0.94,0.5459180737621587
0.26,-0.94,0.48272069486766933
0.28,-0.94,0.4119105222517511
0.30000000000000004,-0.94,0.3346042746365042
0.32000000000000006,-0.94,0.2520211177273349
0.3400000000000001,-0.94,0.16546343724148685
0.3600000000000001,-0.94,0.07629629950727419
0.3800000000000001,-0.94,-0.01407407644736845
0.40000000000000013,-0.94,-0.10422249580899039
0.41999999999999993,-0.94,-0.19272726415220345
0.43999999999999995,-0.94,-0.27819260841004945
0.45999999999999996,-0.94,-0.35927068904906007
0.48,-0.94,-0.4346828563038604
0.5,-0.94,-0.5032398152477972
0.52,-0.94,-0.5638603816843819
0.54,-0.94,-0.6155885330679385
0.56,-0.94,-0.6576084855502491
0.5800000000000001,-0.94,-0.6892575593791638
0.6000000000000001,-0.94,-0.7100366297541614
0.6200000000000001,-0.94,-0.7196179983226122
0.6400000000000001,-0.94,-0.7178505611785604
0.6600000000000001,-0.94,-0.7047621918615833
0.6799999999999999,-0.94,-0.6805593017744233
0.7,-0.94,-0.6456235849518596
0.72,-0.94,-0.6005059985177695
0.74,-0.94,-0.5459180737621586
0.76,-0.94,-0.4827206948676691
0.78,-0.94,-0.411910522251751
0.8,-0.94,-0.33460427463650416
0.8200000000000001,-0.94,-0.2520211177273347
0.8400000000000001,-0.94,-0.16546343724148674
0.8600000000000001,-0.94,-0.07629629950727407
0.8800000000000001,-0.94,0.014074076447368484
0.9000000000000001,-0.94,0.10422249580899046
0.9199999999999999,-0.94,0.19272726415220345
0.94,-0.94,0.2781926084100494
0.96,-0.94,0.3592706890490601
0.98,-0.94,0.4346828563038604
1.0,-0.94,0.5032398152477973

-1.0,-0.92,0.5405052053956696
-0.98,-0.92,0.5998107314690045
-0.96,-0.92,0.6496568839975102
-0.94,-0.92,0.6892575593791639
-0.92,-0.92,0.7179882313068998
-0.9,-0.92,0.7353957999215466
-0.88,-0.92,0.7412057374672728
-0.86,-0.92,0.7353264177582948
-0.84,-0.92,0.7178505611785588
-0.8200000000000001,-0.92,0.6890537724258976
-0.8,-0.92,0.6493901940613084
-0.78,-0.92,0.5994853444094742
-0.76,-0.92,0.5401262527611163
-0.74,-0.92,0.4722490474509319
-0.72,-0.92,0.39692419255454015
-0.7,-0.92,0.31533960603054373
-0.6799999999999999,-0.92,0.2287819255446959
-0.6599999999999999,-0.92,0.1386162174253103
-0.64,-0.92,0.046264448751812896
-0.62,-0.92,-0.04681693791554292
-0.6,-0.92,-0.13915999350488753
-0.5800000000000001,-0.92,-0.22930841286650955
-0.56,-0.92,-0.315840501575021
-0.54,-0.92,-0.3973915968997241
-0.52,-0.92,-0.47267558935108533
-0.5,-0.92,-0.5405052053956695
-0.48,-0.92,-0.5998107314690045
-0.45999999999999996,-0.92,-0.6496568839975101
-0.43999999999999995,-0.92,-0.6892575593791639
-0.42000000000000004,-0.92,-0.7179882313068997
-0.4,-0.92,-0.7353957999215465
-0.38,-0.92,-0.7412057374672728
-0.36,-0.92,-0.7353264177582949
-0.33999999999999997,-0.92,-0.7178505611785589
-0.31999999999999995,-0.92,-0.6890537724258977
-0.29999999999999993,-0.92,-0.6493901940613085
-0.28,-0.92,-0.5994853444094742
-0.26,-0.92,-0.540126252761116
-0.24,-0.92,-0.47224904745093194
-0.21999999999999997,-0.92,-0.39692419255454026
-0.19999999999999996,-0.92,-0.3153396060305438
-0.17999999999999994,-0.92,-0.22878192554469604
-0.16000000000000003,-0.92,-0.13861621742531036
-0.14,-0.92,-0.046264448751812806
-0.12,-0.92,0.04681693791554291
-0.09999999999999998,-0.92,0.13915999350488764
-0.07999999999999996,-0.92,0.2293084128665097
-0.05999999999999994,-0.92,0.3158405015750212
-0.040000000000000036,-0.92,0.3973915968997242
-0.020000000000000018,-0.92,0.4726755893510852
0.0,-0.92,0.5405052053956698
0.020000000000000018,-0.92,0.5998107314690048
0.040000000000000036,-0.92,0.6496568839975104
0.06000000000000005,-0.92,0.6892575593791639
0.08000000000000007,-0.92,0.7179882313069001
0.10000000000000009,-0.92,0.7353957999215465
0.1200000000000001,-0.92,0.7412057374672731
0.14000000000000012,-0.92,0.7353264177582947
0.15999999999999992,-0.92,0.7178505611785588
0.17999999999999994,-0.92,0.6890537724258978
0.19999999999999996,-0.92,0.6493901940613084
0.21999999999999997,-0.92,0.599485344409474
0.24,-0.92,0.5401262527611163
0.26,-0.92,0.472249047450932
0.28,-0.92,0.39692419255454015
0.30000000000000004,-0.92,0.31533960603054384
0.32000000000000006,-0.92,0.22878192554469598
0.3400000000000001,-0.92,0.13861621742531036
0.3600000000000001,-0.92,0.046264448751812785
0.3800000000000001,-0.92,-0.046816937915542964
0.40000000000000013,-0.92,-0.13915999350488759
0.41999999999999993,-0.92,-0.22930841286650966
0.43999999999999995,-0.92,-0.315840501575021
0.45999999999999996,-0.92,-0.39739159689972414
0.48,-0.92,-0.4726755893510853
0.5,-0.92,-0.5405052053956694
0.52,-0.92,-0.5998107314690045
0.54,-0.92,-0.6496568839975104
0.56,-0.92,-0.6892575593791639
0.5800000000000001,-0.92,-0.7179882313069
0.6000000000000001,-0.92,-0.7353957999215461
0.6200000000000001,-0.92,-0.7412057374672729
0.6400000000000001,-0.92,-0.7353264177582948
0.6600000000000001,-0.92,-0.717850561178559
0.6799999999999999,-0.92,-0.6890537724258978
0.7,-0.92,-0.6493901940613085
0.72,-0.92,-0.5994853444094739
0.74,-0.92,-0.540126252761116
0.76,-0.92,-0.47224904745093194
0.78,-0.92,-0.3969241925545401
0.8,-0.92,-0.31533960603054373
0.8200000000000001,-0.92,-0.22878192554469587
0.8400000000000001,-0.92,-0.1386162174253102
0.8600000000000001,-0.92,-0.04626444875181271
0.8800000000000001,-0.92,0.04681693791554303
0.9000000000000001,-0.92,0.13915999350488759
0.9199999999999999,-0.92,0.22930841286650963
0.94,-0.92,0.3158405015750211
0.96,-0.92,0.39739159689972414
0.98,-0.92,0.47267558935108533
1.0,-0.92,0.5405052053956696

-1.0,-0.9,0.5692465055722928
-0.98,-0.9,0.6263017077087978
-0.96,-0.9,0.6734797577802298
-0.94,-0.9,0.7100366297541613
-0.92,-0.9,0.7353957999215466
-0.9,-0.9,0.7491573390200116
-0.88,-0.9,0.7511042193572286
-0.86,-0.9,0.7412057374672706
-0.84,-0.9,0.7196179983226085
-0.8200000000000001,-0.9,0.6866814534654438
-0.8,-0.9,0.6429155318835125
-0.78,-0.9,0.5890104483046554
-0.76,-0.9,0.5258163180982472
-0.74,-0.9,0.4543297504479872
-0.72,-0.9,0.3756781312297246
-0.7,-0.9,0.2911018434627319
-0.6799999999999999,-0.9,0.20193470572851946
-0.6599999999999999,-0.9,0.10958293705502219
-0.64,-0.9,0.015502980002493347
-0.62,-0.9,-0.07882146830570616
-0.6,-0.9,-0.17190285497306199
-0.5800000000000001,-0.9,-0.262273230927705
-0.56,-0.9,-0.34850740135618413
-0.54,-0.9,-0.4292454018770461
-0.52,-0.9,-0.503213945991533
-0.5,-0.9,-0.5692465055722928
-0.48,-0.9,-0.6263017077087978
-0.45999999999999996,-0.9,-0.6734797577802297
-0.43999999999999995,-0.9,-0.7100366297541612
-0.42000000000000004,-0.9,-0.7353957999215465
-0.4,-0.9,-0.7491573390200116
-0.38,-0.9,-0.7511042193572286
-0.36,-0.9,-0.7412057374672707
-0.33999999999999997,-0.9,-0.7196179983226086
-0.31999999999999995,-0.9,-0.6866814534654441
-0.29999999999999993,-0.9,-0.6429155318835126
-0.28,-0.9,-0.5890104483046553
-0.26,-0.9,-0.5258163180982474
-0.24,-0.9,-0.45432975044798735
-0.21999999999999997,-0.9,-0.37567813122972477
-0.19999999999999996,-0.9,-0.29110184346273205
-0.17999999999999994,-0.9,-0.20193470572851957
-0.16000000000000003,-0.9,-0.10958293705502214
-0.14,-0.9,-0.015502980002493347
-0.12,-0.9,0.07882146830570627
-0.09999999999999998,-0.9,0.1719028549730621
-0.07999999999999996,-0.9,0.2622732309277051
-0.05999999999999994,-0.9,0.34850740135618435
-0.040000000000000036,-0.9,0.4292454018770461
-0.020000000000000018,-0.9,0.5032139459915332
0.0,-0.9,0.5692465055722931
0.020000000000000018,-0.9,0.6263017077087981
0.040000000000000036,-0.9,0.67347975778023
0.06000000000000005,-0.9,0.7100366297541613
0.08000000000000007,-0.9,0.7353957999215465
0.10000000000000009,-0.9,0.7491573390200118
0.1200000000000001,-0.9,0.7511042193572284
0.14000000000000012,-0.9,0.7412057374672706
0.15999999999999992,-0.9,0.7196179983226088
0.17999999999999994,-0.9,0.686681453465444
0.19999999999999996,-0.9,0.6429155318835126
0.21999999999999997,-0.9,0.5890104483046554
0.24,-0.9,0.5258163180982472
0.26,-0.9,0.4543297504479872
0.28,-0.9,0.37567813122972477
0.30000000000000004,-0.9,0.291101843462732
0.32000000000000006,-0.9,0.20193470572851957
0.3400000000000001,-0.9,0.1095829370550221
0.3600000000000001,-0.9,0.015502980002493285
0.3800000000000001,-0.9,-0.07882146830570624
0.40000000000000013,-0.9,-0.1719028549730621
0.41999999999999993,-0.9,-0.26227323092770505
0.43999999999999995,-0.9,-0.34850740135618424
0.45999999999999996,-0.9,-0.4292454018770461
0.48,-0.9,-0.5032139459915329
0.5,-0.9,-0.5692465055722928
0.52,-0.9,-0.626301707708798
0.54,-0.9,-0.6734797577802298
0.56,-0.9,-0.7100366297541615
0.5800000000000001,-0.9,-0.7353957999215461
0.6000000000000001,-0.9,-0.7491573390200117
0.6200000000000001,-0.9,-0.7511042193572285
0.6400000000000001,-0.9,-0.7412057374672707
0.6600000000000001,-0.9,-0.7196179983226088
0.6799999999999999,-0.9,-0.686681453465444
0.7,-0.9,-0.6429155318835122
0.72,-0.9,-0.5890104483046553
0.74,-0.9,-0.5258163180982472
0.76,-0.9,-0.4543297504479872
0.78,-0.9,-0.3756781312297246
0.8,-0.9,-0.29110184346273194
0.8200000000000001,-0.9,-0.2019347057285194
0.8400000000000001,-0.9,-0.10958293705502198
0.8600000000000001,-0.9,-0.015502980002493253
0.8800000000000001,-0.9,0.07882146830570622
0.9000000000000001,-0.9,0.1719028549730621
0.9199999999999999,-0.9,0.26227323092770505
0.94,-0.9,0.34850740135618424
0.96,-0.9,0.4292454018770462
0.98,-0.9,0.5032139459915331
1.0,-0.9,0.5692465055722928

-1.0,-0.88,0.5890104483046613
-0.98,-0.88,0.6429155318835179
-0.96,-0.88,0.6866814534654486
-0.94,-0.88,0.7196179983226124
-0.92,-0.88,0.7412057374672729
-0.9,-0.88,0.7511042193572285
-0.88,-0.88,0.7491573390200089
-0.86,-0.88,0.735395799921542
-0.84,-0.88,0.7100366297541558
-0.8200000000000001,-0.88,0.6734797577802236
-0.8,-0.88,0.6263017077087912
-0.78,-0.88,0.5692465055722856
-0.76,-0.88,0.5032139459915265
-0.74,-0.88,0.42924540187703997
-0.72,-0.88,0.348507401356179
-0.7,-0.88,0.2622732309277006
-0.6799999999999999,-0.88,0.17190285497305838
-0.6599999999999999,-0.88,0.07882146830570272
-0.64,-0.88,-0.015502980002496749
-0.62,-0.88,-0.10958293705502559
-0.6,-0.88,-0.20193470572852343
-0.5800000000000001,-0.88,-0.2911018434627364
-0.56,-0.88,-0.3756781312297299
-0.54,-0.88,-0.454329750447993
-0.52,-0.88,-0.5258163180982536
-0.5,-0.88,-0.5890104483046613
-0.48,-0.88,-0.6429155318835179
-0.45999999999999996,-0.88,-0.6866814534654485
-0.43999999999999995,-0.88,-0.7196179983226123
-0.42000000000000004,-0.88,-0.7412057374672728
-0.4,-0.88,-0.7511042193572285
-0.38,-0.88,-0.749157339020009
-0.36,-0.88,-0.7353957999215422
-0.33999999999999997,-0.88,-0.7100366297541559
-0.31999999999999995,-0.88,-0.6734797577802236
-0.29999999999999993,-0.88,-0.626301707708791
-0.28,-0.88,-0.5692465055722856
-0.26,-0.88,-0.5032139459915266
-0.24,-0.88,-0.4292454018770403
-0.21999999999999997,-0.88,-0.34850740135617925
-0.19999999999999996,-0.88,-0.2622732309277008
-0.17999999999999994,-0.88,-0.17190285497305835
-0.16000000000000003,-0.88,-0.0788214683057027
-0.14,-0.88,0.015502980002496846
-0.12,-0.88,0.1095829370550257
-0.09999999999999998,-0.88,0.20193470572852357
-0.07999999999999996,-0.88,0.29110184346273665
-0.05999999999999994,-0.88,0.37567813122973
-0.040000000000000036,-0.88,0.45432975044799323
-0.020000000000000018,-0.88,0.5258163180982538
0.0,-0.88,0.5890104483046616
0.020000000000000018,-0.88,0.6429155318835181
0.040000000000000036,-0.88,0.6866814534654487
0.06000000000000005,-0.88,0.7196179983226123
0.08000000000000007,-0.88,0.741205737467273
0.10000000000000009,-0.88,0.7511042193572284
0.1200000000000001,-0.88,0.749157339020009
0.14000000000000012,-0.88,0.7353957999215424
0.15999999999999992,-0.88,0.7100366297541558
0.17999999999999994,-0.88,0.6734797577802237
0.19999999999999996,-0.88,0.6263017077087911
0.21999999999999997,-0.88,0.5692465055722857
0.24,-0.88,0.5032139459915265
0.26,-0.88,0.42924540187704024
0.28,-0.88,0.3485074013561792
0.30000000000000004,-0.88,0.2622732309277007
0.32000000000000006,-0.88,0.1719028549730583
0.3400000000000001,-0.88,0.07882146830570264
0.3600000000000001,-0.88,-0.015502980002496818
0.3800000000000001,-0.88,-0.10958293705502573
0.40000000000000013,-0.88,-0.20193470572852348
0.41999999999999993,-0.88,-0.2911018434627365
0.43999999999999995,-0.88,-0.37567813122972993
0.45999999999999996,-0.88,-0.4543297504479929
0.48,-0.88,-0.5258163180982535
0.5,-0.88,-0.5890104483046615
0.52,-0.88,-0.6429155318835179
0.54,-0.88,-0.686681453465449
0.56,-0.88,-0.719617998322612
0.5800000000000001,-0.88,-0.7412057374672729
0.6000000000000001,-0.88,-0.7511042193572286
0.6200000000000001,-0.88,-0.749157339020009
0.6400000000000001,-0.88,-0.7353957999215424
0.6600000000000001,-0.88,-0.7100366297541557
0.6799999999999999,-0.88,-0.6734797577802235
0.7,-0.88,-0.6263017077087911
0.72,-0.88,-0.5692465055722856
0.74,-0.88,-0.5032139459915265
0.76,-0.88,-0.42924540187704013
0.78,-0.88,-0.3485074013561791
0.8,-0.88,-0.26227323092770055
0.8200000000000001,-0.88,-0.17190285497305818
0.8400000000000001,-0.88,-0.07882146830570262
0.8600000000000001,-0.88,0.015502980002496811
0.8800000000000001,-0.88,0.10958293705502571
0.9000000000000001,-0.88,0.2019347057285235
0.9199999999999999,-0.88,0.29110184346273654
0.94,-0.88,0.3756781312297301
0.96,-0.88,0.4543297504479931
0.98,-0.88,0.5258163180982535
1.0,-0.88,0.5890104483046613

-1.0,-0.86,0.5994853444094785
-0.98,-0.86,0.649390194061312
-0.96,-0.86,0.6890537724259006
-0.94,-0.86,0.7178505611785605
-0.92,-0.86,0.7353264177582948
-0.9,-0.86,0.7412057374672705
-0.88,-0.86,0.735395799921542
-0.86,-0.86,0.7179882313068943
-0.84,-0.86,0.6892575593791573
-0.8200000000000001,-0.86,0.6496568839975031
-0.8,-0.86,0.5998107314689968
-0.78,-0.86,0.5405052053956622
-0.76,-0.86,0.47267558935107845
-0.74,-0.86,0.3973915968997184
-0.72,-0.86,0.31584050157501614
-0.7,-0.86,0.22930841286650572
-0.6799999999999999,-0.86,0.13915999350488398
-0.6599999999999999,-0.86,0.04681693791553958
-0.64,-0.86,-0.04626444875181612
-0.62,-0.86,-0.13861621742531388
-0.6,-0.86,-0.2287819255446998
-0.5800000000000001,-0.86,-0.3153396060305482
-0.56,-0.86,-0.3969241925545452
-0.54,-0.86,-0.4722490474509372
-0.52,-0.86,-0.5401262527611214
-0.5,-0.86,-0.5994853444094785
-0.48,-0.86,-0.6493901940613119
-0.45999999999999996,-0.86,-0.6890537724259003
-0.43999999999999995,-0.86,-0.7178505611785605
-0.42000000000000004,-0.86,-0.7353264177582948
-0.4,-0.86,-0.7412057374672708
-0.38,-0.86,-0.7353957999215422
-0.36,-0.86,-0.7179882313068944
-0.33999999999999997,-0.86,-0.6892575593791573
-0.31999999999999995,-0.86,-0.6496568839975031
-0.29999999999999993,-0.86,-0.5998107314689969
-0.28,-0.86,-0.5405052053956622
-0.26,-0.86,-0.4726755893510789
-0.24,-0.86,-0.3973915968997186
-0.21999999999999997,-0.86,-0.3158405015750164
-0.19999999999999996,-0.86,-0.2293084128665057
-0.17999999999999994,-0.86,-0.13915999350488398
-0.16000000000000003,-0.86,-0.046816937915539494
-0.14,-0.86,0.046264448751816206
-0.12,-0.86,0.138616217425314
-0.09999999999999998,-0.86,0.22878192554469998
-0.07999999999999996,-0.86,0.31533960603054834
-0.05999999999999994,-0.86,0.39692419255454536
-0.040000000000000036,-0.86,0.4722490474509375
-0.020000000000000018,-0.86,0.5401262527611216
0.0,-0.86,0.5994853444094786
0.020000000000000018,-0.86,0.6493901940613122
0.040000000000000036,-0.86,0.6890537724259004
0.06000000000000005,-0.86,0.7178505611785606
0.08000000000000007,-0.86,0.7353264177582945
0.10000000000000009,-0.86,0.7412057374672707
0.1200000000000001,-0.86,0.7353957999215422
0.14000000000000012,-0.86,0.7179882313068942
0.15999999999999992,-0.86,0.6892575593791574
0.17999999999999994,-0.86,0.649656883997503
0.19999999999999996,-0.86,0.5998107314689969
0.21999999999999997,-0.86,0.5405052053956622
0.24,-0.86,0.47267558935107884
0.26,-0.86,0.3973915968997186
0.28,-0.86,0.31584050157501636
0.30000000000000004,-0.86,0.22930841286650563
0.32000000000000006,-0.86,0.13915999350488392
0.3400000000000001,-0.86,0.046816937915539515
0.3600000000000001,-0.86,-0.046264448751816234
0.3800000000000001,-0.86,-0.1386162174253139
0.40000000000000013,-0.86,-0.22878192554469984