TITLE = "Solution" 
VARIABLES = "x", "y", "sol" 
ZONE STRANDID=1, SOLUTIONTIME= 0.47000000000000025, I= 101, J =101, DATAPACKING=POINT 
-1.0,-1.0,-0.12023798706208144
-0.98,-1.0,-0.09622075434955904
-0.96,-1.0,-0.07068606286145154
-0.94,-1.0,-0.04403660993621175
-0.92,-1.0,-0.016692673366082204
-0.9,-1.0,0.010914516634750189
-0.88,-1.0,0.03834957818823637
-0.86,-1.0,0.06517984398476652
-0.84,-1.0,0.0909821847051055
-0.8200000000000001,-1.0,0.11534968202252213
-0.8,-1.0,0.13789804594788355
-0.78,-1.0,0.15827167531234726
-0.76,-1.0,0.17614926581021922
-0.74,-1.0,0.19124887715979302
-0.72,-1.0,0.20333237947001545
-0.7,-1.0,0.21220920869111962
-0.6799999999999999,-1.0,0.21773937192352819
-0.6599999999999999,-1.0,0.21983565518950704
-0.64,-1.0,0.21846499884969245
-0.62,-1.0,0.21364901897335375
-0.6,-1.0,0.20546366644006778
-0.5800000000000001,-1.0,0.19403802914897691
-0.56,-1.0,0.17955229622550642
-0.54,-1.0,0.162234916331217
-0.52,-1.0,0.14235899489194295
-0.5,-1.0,0.12023798706208146
-0.48,-1.0,0.09622075434955905
-0.45999999999999996,-1.0,0.0706860628614515
-0.43999999999999995,-1.0,0.04403660993621171
-0.42000000000000004,-1.0,0.016692673366082173
-0.4,-1.0,-0.010914516634750224
-0.38,-1.0,-0.03834957818823643
-0.36,-1.0,-0.06517984398476659
-0.33999999999999997,-1.0,-0.09098218470510548
-0.31999999999999995,-1.0,-0.1153496820225221
-0.29999999999999993,-1.0,-0.13789804594788357
-0.28,-1.0,-0.1582716753123473
-0.26,-1.0,-0.1761492658102192
-0.24,-1.0,-0.19124887715979305
-0.21999999999999997,-1.0,-0.20333237947001542
-0.19999999999999996,-1.0,-0.2122092086911196
-0.17999999999999994,-1.0,-0.2177393719235282
-0.16000000000000003,-1.0,-0.21983565518950696
-0.14,-1.0,-0.21846499884969253
-0.12,-1.0,-0.21364901897335384
-0.09999999999999998,-1.0,-0.20546366644006783
-0.07999999999999996,-1.0,-0.1940380291489769
-0.05999999999999994,-1.0,-0.17955229622550642
-0.040000000000000036,-1.0,-0.162234916331217
-0.020000000000000018,-1.0,-0.1423589948919429
0.0,-1.0,-0.1202379870620814
0.020000000000000018,-1.0,-0.09622075434955896
0.040000000000000036,-1.0,-0.07068606286145149
0.06000000000000005,-1.0,-0.04403660993621173
0.08000000000000007,-1.0,-0.016692673366082204
0.10000000000000009,-1.0,0.010914516634750182
0.1200000000000001,-1.0,0.03834957818823636
0.14000000000000012,-1.0,0.06517984398476649
0.15999999999999992,-1.0,0.09098218470510552
0.17999999999999994,-1.0,0.11534968202252205
0.19999999999999996,-1.0,0.13789804594788352
0.21999999999999997,-1.0,0.15827167531234718
0.24,-1.0,0.17614926581021917
0.26,-1.0,0.1912488771597931
0.28,-1.0,0.20333237947001534
0.30000000000000004,-1.0,0.2122092086911196
0.32000000000000006,-1.0,0.2177393719235282
0.3400000000000001,-1.0,0.21983565518950704
0.3600000000000001,-1.0,0.21846499884969248
0.3800000000000001,-1.0,0.21364901897335375
0.40000000000000013,-1.0,0.20546366644006778
0.41999999999999993,-1.0,0.19403802914897683
0.43999999999999995,-1.0,0.1795522962255064
0.45999999999999996,-1.0,0.16223491633121695
0.48,-1.0,0.14235899489194287
0.5,-1.0,0.12023798706208141
0.52,-1.0,0.09622075434955897
0.54,-1.0,0.0706860628614515
0.56,-1.0,0.044036609936211696
0.5800000000000001,-1.0,0.01669267336608216
0.6000000000000001,-1.0,-0.010914516634750182
0.6200000000000001,-1.0,-0.03834957818823639
0.6400000000000001,-1.0,-0.06517984398476659
0.6600000000000001,-1.0,-0.09098218470510543
0.6799999999999999,-1.0,-0.11534968202252206
0.7,-1.0,-0.13789804594788352
0.72,-1.0,-0.15827167531234723
0.74,-1.0,-0.17614926581021922
0.76,-1.0,-0.19124887715979305
0.78,-1.0,-0.20333237947001542
0.8,-1.0,-0.21220920869111956
0.8200000000000001,-1.0,-0.21773937192352813
0.8400000000000001,-1.0,-0.2198356551895071
0.8600000000000001,-1.0,-0.21846499884969237
0.8800000000000001,-1.0,-0.21364901897335373
0.9000000000000001,-1.0,-0.2054636664400677
0.9199999999999999,-1.0,-0.1940380291489768
0.94,-1.0,-0.17955229622550645
0.96,-1.0,-0.162234916331217
0.98,-1.0,-0.1423589948919429
1.0,-1.0,-0.12023798706208144

-1.0,-0.98,-0.09622075434955904
-0.98,-0.98,-0.0598582413054293
-0.96,-0.98,-0.022551728038332802
-0.94,-0.98,0.015110439451677539
-0.92,-0.98,0.05253430628499594
-0.9,-0.98,0.08912967572572658
-0.88,-0.98,0.12431941693677503
-0.86,-0.98,0.15754856667791078
-0.84,-0.98,0.1882930814075838
-0.8200000000000001,-0.98,0.21606810176262464
-0.8,-0.98,0.24043559908004142
-0.78,-0.98,0.261011283370701
-0.76,-0.98,0.2774706638020214
-0.74,-0.98,0.2895541661122438
-0.72,-0.98,0.29707122625160126
-0.7,-0.98,0.29990329569122226
-0.6799999999999999,-0.98,0.298005711004248
-0.6599999999999999,-0.98,0.291408398234754
-0.64,-0.98,0.28021540094615893
-0.62,-0.98,0.26460323939207625
-0.6,-0.98,0.24481812668646707
-0.5800000000000001,-0.98,0.22117208587575216
-0.56,-0.98,0.1940380291489768
-0.54,-0.98,0.1638438767898219
-0.52,-0.98,0.1310658086181037
-0.5,-0.98,0.09622075434955904
-0.48,-0.98,0.05985824130542926
-0.45999999999999996,-0.98,0.022551728038332754
-0.43999999999999995,-0.98,-0.01511043945167758
-0.42000000000000004,-0.98,-0.052534306284995995
-0.4,-0.98,-0.08912967572572662
-0.38,-0.98,-0.12431941693677515
-0.36,-0.98,-0.15754856667791073
-0.33999999999999997,-0.98,-0.18829308140758388
-0.31999999999999995,-0.98,-0.21606810176262464
-0.29999999999999993,-0.98,-0.24043559908004142
-0.28,-0.98,-0.2610112833707009
-0.26,-0.98,-0.27747066380202146
-0.24,-0.98,-0.2895541661122439
-0.21999999999999997,-0.98,-0.2970712262516013
-0.19999999999999996,-0.98,-0.2999032956912222
-0.17999999999999994,-0.98,-0.2980057110042479
-0.16000000000000003,-0.98,-0.2914083982347542
-0.14,-0.98,-0.280215400946159
-0.12,-0.98,-0.2646032393920763
-0.09999999999999998,-0.98,-0.24481812668646707
-0.07999999999999996,-0.98,-0.22117208587575216
-0.05999999999999994,-0.98,-0.1940380291489768
-0.040000000000000036,-0.98,-0.16384387678982182
-0.020000000000000018,-0.98,-0.13106580861810363
0.0,-0.98,-0.09622075434955897
0.020000000000000018,-0.98,-0.05985824130542923
0.040000000000000036,-0.98,-0.022551728038332754
0.06000000000000005,-0.98,0.01511043945167756
0.08000000000000007,-0.98,0.05253430628499595
0.10000000000000009,-0.98,0.08912967572572658
0.1200000000000001,-0.98,0.12431941693677503
0.14000000000000012,-0.98,0.15754856667791078
0.15999999999999992,-0.98,0.18829308140758383
0.17999999999999994,-0.98,0.21606810176262464
0.19999999999999996,-0.98,0.2404355990800413
0.21999999999999997,-0.98,0.26101128337070084
0.24,-0.98,0.27747066380202146
0.26,-0.98,0.28955416611224377
0.28,-0.98,0.29707122625160126
0.30000000000000004,-0.98,0.29990329569122215
0.32000000000000006,-0.98,0.29800571100424794
0.3400000000000001,-0.98,0.291408398234754
0.3600000000000001,-0.98,0.28021540094615893
0.3800000000000001,-0.98,0.2646032393920762
0.40000000000000013,-0.98,0.24481812668646694
0.41999999999999993,-0.98,0.22117208587575213
0.43999999999999995,-0.98,0.19403802914897672
0.45999999999999996,-0.98,0.1638438767898218
0.48,-0.98,0.13106580861810363
0.5,-0.98,0.09622075434955896
0.52,-0.98,0.059858241305429244
0.54,-0.98,0.022551728038332743
0.56,-0.98,-0.015110439451677588
0.5800000000000001,-0.98,-0.05253430628499595
0.6000000000000001,-0.98,-0.08912967572572658
0.6200000000000001,-0.98,-0.12431941693677515
0.6400000000000001,-0.98,-0.15754856667791067
0.6600000000000001,-0.98,-0.18829308140758377
0.6799999999999999,-0.98,-0.21606810176262464
0.7,-0.98,-0.24043559908004136
0.72,-0.98,-0.26101128337070095
0.74,-0.98,-0.27747066380202146
0.76,-0.98,-0.2895541661122438
0.78,-0.98,-0.29707122625160126
0.8,-0.98,-0.2999032956912221
0.8200000000000001,-0.98,-0.29800571100424805
0.8400000000000001,-0.98,-0.29140839823475395
0.8600000000000001,-0.98,-0.2802154009461589
0.8800000000000001,-0.98,-0.2646032393920762
0.9000000000000001,-0.98,-0.24481812668646694
0.9199999999999999,-0.98,-0.22117208587575218
0.94,-0.98,-0.19403802914897678
0.96,-0.98,-0.16384387678982182
0.98,-0.98,-0.13106580861810366
1.0,-0.98,-0.09622075434955904

-1.0,-0.96,-0.07068606286145153
-0.98,-0.96,-0.022551728038332802
-0.96,-0.96,0.025938261007699782
-0.94,-0.96,0.07401918818287487
-0.92,-0.96,0.12093278854348632
-0.9,-0.96,0.16593920658702083
-0.88,-0.96,0.20832866421540105
-0.86,-0.96,0.24743265435959244
-0.84,-0.96,0.28263448373543
-0.8200000000000001,-0.96,0.3133789984651032
-0.8,-0.96,0.3391813391854422
-0.78,-0.96,0.35963458756971556
-0.76,-0.96,0.3744161836727256
-0.74,-0.96,0.3832930128938297
-0.72,-0.96,0.3861250823334506
-0.7,-0.96,0.3828677285647295
-0.6799999999999999,-0.96,0.37357232200244805
-0.6599999999999999,-0.96,0.3583854567608999
-0.64,-0.96,0.3375466387771378
-0.62,-0.96,0.31138450865927225
-0.6,-0.96,0.28031165882776066
-0.5800000000000001,-0.96,0.24481812668646702
-0.56,-0.96,0.20546366644006772
-0.54,-0.96,0.16286892143586348
-0.52,-0.96,0.117705636247438
-0.5,-0.96,0.0706860628614515
-0.48,-0.96,0.02255172803833275
-0.45999999999999996,-0.96,-0.02593826100769983
-0.43999999999999995,-0.96,-0.07401918818287495
-0.42000000000000004,-0.96,-0.12093278854348638
-0.4,-0.96,-0.16593920658702094
-0.38,-0.96,-0.20832866421540094
-0.36,-0.96,-0.2474326543595925
-0.33999999999999997,-0.96,-0.28263448373543
-0.31999999999999995,-0.96,-0.3133789984651032
-0.29999999999999993,-0.96,-0.33918133918544213
-0.28,-0.96,-0.3596345875697157
-0.26,-0.96,-0.3744161836727256
-0.24,-0.96,-0.3832930128938298
-0.21999999999999997,-0.96,-0.38612508233345055
-0.19999999999999996,-0.96,-0.38286772856472945
-0.17999999999999994,-0.96,-0.37357232200244817
-0.16000000000000003,-0.96,-0.35838545676089995
-0.14,-0.96,-0.3375466387771379
-0.12,-0.96,-0.31138450865927225
-0.09999999999999998,-0.96,-0.28031165882776066
-0.07999999999999996,-0.96,-0.24481812668646702
-0.05999999999999994,-0.96,-0.20546366644006767
-0.040000000000000036,-0.96,-0.16286892143586335
-0.020000000000000018,-0.96,-0.11770563624743793
0.0,-0.96,-0.07068606286145146
0.020000000000000018,-0.96,-0.022551728038332736
0.040000000000000036,-0.96,0.025938261007699824
0.06000000000000005,-0.96,0.0740191881828749
0.08000000000000007,-0.96,0.12093278854348635
0.10000000000000009,-0.96,0.16593920658702083
0.1200000000000001,-0.96,0.20832866421540103
0.14000000000000012,-0.96,0.24743265435959244
0.15999999999999992,-0.96,0.2826344837354299
0.17999999999999994,-0.96,0.3133789984651031
0.19999999999999996,-0.96,0.339181339185442
0.21999999999999997,-0.96,0.3596345875697156
0.24,-0.96,0.3744161836727255
0.26,-0.96,0.3832930128938297
0.28,-0.96,0.38612508233345044
0.30000000000000004,-0.96,0.3828677285647295
0.32000000000000006,-0.96,0.37357232200244794
0.3400000000000001,-0.96,0.3583854567608999
0.3600000000000001,-0.96,0.3375466387771378
0.3800000000000001,-0.96,0.3113845086592721
0.40000000000000013,-0.96,0.2803116588277606
0.41999999999999993,-0.96,0.2448181266864669
0.43999999999999995,-0.96,0.2054636664400676
0.45999999999999996,-0.96,0.16286892143586335
0.48,-0.96,0.11770563624743788
0.5,-0.96,0.07068606286145146
0.52,-0.96,0.022551728038332722
0.54,-0.96,-0.02593826100769985
0.56,-0.96,-0.0740191881828749
0.5800000000000001,-0.96,-0.12093278854348632
0.6000000000000001,-0.96,-0.1659392065870209
0.6200000000000001,-0.96,-0.20832866421540094
0.6400000000000001,-0.96,-0.2474326543595924
0.6600000000000001,-0.96,-0.28263448373543
0.6799999999999999,-0.96,-0.3133789984651031
0.7,-0.96,-0.339181339185442
0.72,-0.96,-0.35963458756971567
0.74,-0.96,-0.3744161836727256
0.76,-0.96,-0.3832930128938296
0.78,-0.96,-0.3861250823334504
0.8,-0.96,-0.38286772856472956
0.8200000000000001,-0.96,-0.37357232200244805
0.8400000000000001,-0.96,-0.35838545676089983
0.8600000000000001,-0.96,-0.33754663877713775
0.8800000000000001,-0.96,-0.31138450865927203
0.9000000000000001,-0.96,-0.28031165882776066
0.9199999999999999,-0.96,-0.24481812668646694
0.94,-0.96,-0.2054636664400676
0.96,-0.96,-0.1628689214358634
0.98,-0.96,-0.11770563624743796
1.0,-0.96,-0.07068606286145153

-1.0,-0.94,-0.044036609936211765
-0.98,-0.94,0.015110439451677522
-0.96,-0.94,0.07401918818287487
-0.94,-0.94,0.13176061009950857
-0.92,-0.94,0.18742408848489978
-0.9,-0.94,0.2401317770331609
-0.88,-0.94,0.28905244400983826
-0.86,-0.94,0.3334145812729202
-0.84,-0.94,0.3725185714171118
-0.8200000000000001,-0.94,0.4057477211582476
-0.8,-0.94,0.43257798695477745
-0.78,-0.94,0.4525862394874668
-0.76,-0.94,0.4654569366615242
-0.74,-0.94,0.4709870998939324
-0.72,-0.94,0.46908951520695774
-0.7,-0.94,0.45979410864467624
-0.6799999999999999,-0.94,0.44324747432138134
-0.6599999999999999,-0.94,0.4197105625448318
-0.64,-0.94,0.3895545644740132
-0.62,-0.94,0.35325505821282227
-0.6,-0.94,0.3113845086592722
-0.5800000000000001,-0.94,0.26460323939207625
-0.56,-0.94,0.2136490189733537
-0.54,-0.94,0.15932542589768378
-0.52,-0.94,0.10248917567921127
-0.5,-0.94,0.04403660993621172
-0.48,-0.94,-0.015110439451677588
-0.45999999999999996,-0.94,-0.07401918818287495
-0.43999999999999995,-0.94,-0.13176061009950862
-0.42000000000000004,-0.94,-0.1874240884848999
-0.4,-0.94,-0.24013177703316077
-0.38,-0.94,-0.28905244400983837
-0.36,-0.94,-0.33341458127292023
-0.33999999999999997,-0.94,-0.37251857141711187
-0.31999999999999995,-0.94,-0.40574772115824753
-0.29999999999999993,-0.94,-0.4325779869547776
-0.28,-0.94,-0.4525862394874669
-0.26,-0.94,-0.4654569366615241
-0.24,-0.94,-0.47098709989393234
-0.21999999999999997,-0.94,-0.4690895152069577
-0.19999999999999996,-0.94,-0.45979410864467646
-0.17999999999999994,-0.94,-0.4432474743213814
-0.16000000000000003,-0.94,-0.4197105625448319
-0.14,-0.94,-0.38955456447401315
-0.12,-0.94,-0.35325505821282216
-0.09999999999999998,-0.94,-0.3113845086592722
-0.07999999999999996,-0.94,-0.26460323939207625
-0.05999999999999994,-0.94,-0.21364901897335356
-0.040000000000000036,-0.94,-0.15932542589768375
-0.020000000000000018,-0.94,-0.1024891756792112
0.0,-0.94,-0.04403660993621166
0.020000000000000018,-0.94,0.015110439451677601
0.040000000000000036,-0.94,0.07401918818287492
0.06000000000000005,-0.94,0.13176061009950857
0.08000000000000007,-0.94,0.18742408848489975
0.10000000000000009,-0.94,0.24013177703316083
0.1200000000000001,-0.94,0.28905244400983826
0.14000000000000012,-0.94,0.3334145812729201
0.15999999999999992,-0.94,0.3725185714171117
0.17999999999999994,-0.94,0.4057477211582475
0.19999999999999996,-0.94,0.4325779869547775
0.21999999999999997,-0.94,0.4525862394874668
0.24,-0.94,0.46545693666152405
0.26,-0.94,0.4709870998939322
0.28,-0.94,0.4690895152069578
0.30000000000000004,-0.94,0.4597941086446761
0.32000000000000006,-0.94,0.4432474743213814
0.3400000000000001,-0.94,0.41971056254483174
0.3600000000000001,-0.94,0.389554564474013
0.3800000000000001,-0.94,0.3532550582128222
0.40000000000000013,-0.94,0.31138450865927214
0.41999999999999993,-0.94,0.2646032393920762
0.43999999999999995,-0.94,0.2136490189733536
0.45999999999999996,-0.94,0.15932542589768364
0.48,-0.94,0.10248917567921119
0.5,-0.94,0.04403660993621165
0.52,-0.94,-0.015110439451677619
0.54,-0.94,-0.0740191881828749
0.56,-0.94,-0.13176061009950857
0.5800000000000001,-0.94,-0.18742408848489983
0.6000000000000001,-0.94,-0.2401317770331608
0.6200000000000001,-0.94,-0.2890524440098383
0.6400000000000001,-0.94,-0.3334145812729203
0.6600000000000001,-0.94,-0.3725185714171117
0.6799999999999999,-0.94,-0.4057477211582474
0.7,-0.94,-0.43257798695477756
0.72,-0.94,-0.4525862394874669
0.74,-0.94,-0.46545693666152393
0.76,-0.94,-0.4709870998939322
0.78,-0.94,-0.46908951520695785
0.8,-0.94,-0.45979410864467624
0.8200000000000001,-0.94,-0.44324747432138134
0.8400000000000001,-0.94,-0.4197105625448317
0.8600000000000001,-0.94,-0.389554564474013
0.8800000000000001,-0.94,-0.3532550582128222
0.9000000000000001,-0.94,-0.3113845086592721
0.9199999999999999,-0.94,-0.26460323939207614
0.94,-0.94,-0.21364901897335364
0.96,-0.94,-0.15932542589768373
0.98,-0.94,-0.10248917567921127
1.0,-0.94,-0.044036609936211765

-1.0,-0.92,-0.016692673366082232
-0.98,-0.92,0.05253430628499592
-0.96,-0.92,0.1209327885434863
-0.94,-0.92,0.18742408848489978
-0.92,-0.92,0.25095959858918315
-0.9,-0.92,0.3105373259077172
-0.88,-0.92,0.36521769409067995
-0.86,-0.92,0.4141383610673577
-0.84,-0.92,0.456527818695738
-0.8200000000000001,-0.92,0.49171755990678623
-0.8,-0.92,0.5191526214602723
-0.78,-0.92,0.5384003360465862
-0.76,-0.92,0.5491571557086738
-0.74,-0.92,0.551253438974652
-0.72,-0.92,0.5446561262051579
-0.7,-0.92,0.5294692609636096
-0.6799999999999999,-0.92,0.50593234918706
-0.6599999999999999,-0.92,0.4744165820344946
-0.64,-0.92,0.43541898198051615
-0.62,-0.92,0.38955456447401315
-0.6,-0.92,0.3375466387771378
-0.5800000000000001,-0.92,0.2802154009461589
-0.56,-0.92,0.21846499884969237
-0.54,-0.92,0.15326927321670147
-0.52,-0.92,0.08565639958645752
-0.5,-0.92,0.016692673366082173
-0.48,-0.92,-0.052534306284996016
-0.45999999999999996,-0.92,-0.12093278854348641
-0.43999999999999995,-0.92,-0.1874240884848999
-0.42000000000000004,-0.92,-0.25095959858918304
-0.4,-0.92,-0.31053732590771727
-0.38,-0.92,-0.36521769409068006
-0.36,-0.92,-0.4141383610673577
-0.33999999999999997,-0.92,-0.45652781869573794
-0.31999999999999995,-0.92,-0.4917175599067864
-0.29999999999999993,-0.92,-0.5191526214602724
-0.28,-0.92,-0.5384003360465862
-0.26,-0.92,-0.549157155708674
-0.24,-0.92,-0.5512534389746521
-0.21999999999999997,-0.92,-0.544656126205158
-0.19999999999999996,-0.92,-0.5294692609636097
-0.17999999999999994,-0.92,-0.5059323491870601
-0.16000000000000003,-0.92,-0.47441658203449466
-0.14,-0.92,-0.4354189819805161
-0.12,-0.92,-0.38955456447401315
-0.09999999999999998,-0.92,-0.33754663877713786
-0.07999999999999996,-0.92,-0.28021540094615877
-0.05999999999999994,-0.92,-0.2184649988496923
-0.040000000000000036,-0.92,-0.15326927321670142
-0.020000000000000018,-0.92,-0.08565639958645742
0.0,-0.92,-0.01669267336608213
0.020000000000000018,-0.92,0.052534306284996
0.040000000000000036,-0.92,0.12093278854348635
0.06000000000000005,-0.92,0.18742408848489975
0.08000000000000007,-0.92,0.2509595985891831
0.10000000000000009,-0.92,0.31053732590771727
0.1200000000000001,-0.92,0.36521769409067995
0.14000000000000012,-0.92,0.4141383610673576
0.15999999999999992,-0.92,0.45652781869573783
0.17999999999999994,-0.92,0.4917175599067863
0.19999999999999996,-0.92,0.5191526214602723
0.21999999999999997,-0.92,0.538400336046586
0.24,-0.92,0.5491571557086736
0.26,-0.92,0.5512534389746521
0.28,-0.92,0.5446561262051578
0.30000000000000004,-0.92,0.5294692609636096
0.32000000000000006,-0.92,0.50593234918706
0.3400000000000001,-0.92,0.4744165820344944
0.3600000000000001,-0.92,0.43541898198051615
0.3800000000000001,-0.92,0.3895545644740131
0.40000000000000013,-0.92,0.3375466387771378
0.41999999999999993,-0.92,0.28021540094615877
0.43999999999999995,-0.92,0.21846499884969223
0.45999999999999996,-0.92,0.15326927321670133
0.48,-0.92,0.08565639958645739
0.5,-0.92,0.01669267336608211
0.52,-0.92,-0.052534306284995974
0.54,-0.92,-0.12093278854348632
0.56,-0.92,-0.18742408848489983
0.5800000000000001,-0.92,-0.2509595985891831
0.6000000000000001,-0.92,-0.3105373259077172
0.6200000000000001,-0.92,-0.36521769409068006
0.6400000000000001,-0.92,-0.4141383610673575
0.6600000000000001,-0.92,-0.4565278186957377
0.6799999999999999,-0.92,-0.49171755990678634
0.7,-0.92,-0.5191526214602724
0.72,-0.92,-0.5384003360465859
0.74,-0.92,-0.5491571557086737
0.76,-0.92,-0.5512534389746522
0.78,-0.92,-0.5446561262051578
0.8,-0.92,-0.5294692609636096
0.8200000000000001,-0.92,-0.50593234918706
0.8400000000000001,-0.92,-0.4744165820344945
0.8600000000000001,-0.92,-0.43541898198051615
0.8800000000000001,-0.92,-0.38955456447401304
0.9000000000000001,-0.92,-0.33754663877713775
0.9199999999999999,-0.92,-0.2802154009461588
0.94,-0.92,-0.2184649988496923
0.96,-0.92,-0.15326927321670145
0.98,-0.92,-0.08565639958645753
1.0,-0.92,-0.016692673366082232

-1.0,-0.9,0.010914516634750158
-0.98,-0.9,0.08912967572572653
-0.96,-0.9,0.16593920658702083
-0.94,-0.9,0.24013177703316083
-0.92,-0.9,0.31053732590771715
-0.9,-0.9,0.37604551564670224
-0.88,-0.9,0.4356232429652367
-0.86,-0.9,0.48833093151349793
-0.84,-0.9,0.5333373495570323
-0.8200000000000001,-0.9,0.5699327189977628
-0.8,-0.9,0.5975399089985951
-0.78,-0.9,0.6157235376814796
-0.76,-0.9,0.6241968383597142
-0.74,-0.9,0.6228261820198991
-0.72,-0.9,0.6116331847313037
-0.7,-0.9,0.5907943667475416
-0.6799999999999999,-0.9,0.5606383686767227
-0.6599999999999999,-0.9,0.5216407686227442
-0.64,-0.9,0.47441658203449455
-0.62,-0.9,0.41971056254483174
-0.6,-0.9,0.35838545676089983
-0.5800000000000001,-0.9,0.29140839823475406
-0.56,-0.9,0.2198356551895067
-0.54,-0.9,0.14479597253846604
-0.52,-0.9,0.06747277090357237
-0.5,-0.9,-0.010914516634750255
-0.48,-0.9,-0.08912967572572662
-0.45999999999999996,-0.9,-0.1659392065870209
-0.43999999999999995,-0.9,-0.2401317770331608
-0.42000000000000004,-0.9,-0.31053732590771727
-0.4,-0.9,-0.3760455156467023
-0.38,-0.9,-0.4356232429652367
-0.36,-0.9,-0.4883309315134978
-0.33999999999999997,-0.9,-0.5333373495570323
-0.31999999999999995,-0.9,-0.5699327189977628
-0.29999999999999993,-0.9,-0.5975399089985951
-0.28,-0.9,-0.6157235376814795
-0.26,-0.9,-0.6241968383597143
-0.24,-0.9,-0.6228261820198993
-0.21999999999999997,-0.9,-0.6116331847313038
-0.19999999999999996,-0.9,-0.5907943667475417
-0.17999999999999994,-0.9,-0.5606383686767229
-0.16000000000000003,-0.9,-0.5216407686227442
-0.14,-0.9,-0.4744165820344946
-0.12,-0.9,-0.41971056254483186
-0.09999999999999998,-0.9,-0.3583854567608997
-0.07999999999999996,-0.9,-0.29140839823475395
-0.05999999999999994,-0.9,-0.21983565518950662
-0.040000000000000036,-0.9,-0.1447959725384659
-0.020000000000000018,-0.9,-0.0674727709035723
0.0,-0.9,0.010914516634750241
0.020000000000000018,-0.9,0.08912967572572661
0.040000000000000036,-0.9,0.16593920658702085
0.06000000000000005,-0.9,0.24013177703316077
0.08000000000000007,-0.9,0.31053732590771727
0.10000000000000009,-0.9,0.3760455156467022
0.1200000000000001,-0.9,0.4356232429652365
0.14000000000000012,-0.9,0.48833093151349766
0.15999999999999992,-0.9,0.5333373495570323
0.17999999999999994,-0.9,0.5699327189977628
0.19999999999999996,-0.9,0.5975399089985949
0.21999999999999997,-0.9,0.6157235376814792
0.24,-0.9,0.6241968383597143
0.26,-0.9,0.622826182019899
0.28,-0.9,0.6116331847313038
0.30000000000000004,-0.9,0.5907943667475415
0.32000000000000006,-0.9,0.5606383686767226
0.3400000000000001,-0.9,0.5216407686227441
0.3600000000000001,-0.9,0.47441658203449455
0.3800000000000001,-0.9,0.41971056254483174
0.40000000000000013,-0.9,0.35838545676089967
0.41999999999999993,-0.9,0.29140839823475395
0.43999999999999995,-0.9,0.2198356551895065
0.45999999999999996,-0.9,0.14479597253846588
0.48,-0.9,0.06747277090357226
0.5,-0.9,-0.010914516634750241
0.52,-0.9,-0.08912967572572662
0.54,-0.9,-0.16593920658702088
0.56,-0.9,-0.24013177703316083
0.5800000000000001,-0.9,-0.3105373259077172
0.6000000000000001,-0.9,-0.3760455156467023
0.6200000000000001,-0.9,-0.4356232429652365
0.6400000000000001,-0.9,-0.4883309315134976
0.6600000000000001,-0.9,-0.5333373495570323
0.6799999999999999,-0.9,-0.5699327189977629
0.7,-0.9,-0.5975399089985948
0.72,-0.9,-0.6157235376814794
0.74,-0.9,-0.6241968383597143
0.76,-0.9,-0.622826182019899
0.78,-0.9,-0.6116331847313038
0.8,-0.9,-0.5907943667475415
0.8200000000000001,-0.9,-0.5606383686767227
0.8400000000000001,-0.9,-0.5216407686227442
0.8600000000000001,-0.9,-0.4744165820344945
0.8800000000000001,-0.9,-0.4197105625448316
0.9000000000000001,-0.9,-0.3583854567608998
0.9199999999999999,-0.9,-0.29140839823475395
0.94,-0.9,-0.2198356551895066
0.96,-0.9,-0.14479597253846602
0.98,-0.9,-0.06747277090357243
1.0,-0.9,0.010914516634750158

-1.0,-0.88,0.03834957818823635
-0.98,-0.88,0.12431941693677502
-0.96,-0.88,0.20832866421540097
-0.94,-0.88,0.2890524440098382
-0.92,-0.88,0.36521769409068
-0.9,-0.88,0.43562324296523663
-0.88,-0.88,0.49915875306952007
-0.86,-0.88,0.5548222314549113
-0.84,-0.88,0.6017358318155227
-0.8200000000000001,-0.88,0.639159698648841
-0.8,-0.88,0.66650363521897
-0.78,-0.88,0.6833364113117232
-0.76,-0.88,0.6893925639927048
-0.74,-0.88,0.6845765841163653
-0.72,-0.88,0.6689644225622826
-0.7,-0.88,0.6428022924444168
-0.6799999999999999,-0.88,0.6065027861832256
-0.6599999999999999,-0.88,0.5606383686767227
-0.64,-0.88,0.5059323491870598
-0.62,-0.88,0.4432474743213813
-0.6,-0.88,0.37357232200244805
-0.5800000000000001,-0.88,0.29800571100424766
-0.56,-0.88,0.2177393719235276
-0.54,-0.88,0.13403915287637752
-0.52,-0.88,0.04822505631725826
-0.5,-0.88,-0.038349578188236436
-0.48,-0.88,-0.12431941693677513
-0.45999999999999996,-0.88,-0.208328664215401
-0.43999999999999995,-0.88,-0.2890524440098383
-0.42000000000000004,-0.88,-0.36521769409068006
-0.4,-0.88,-0.43562324296523663
-0.38,-0.88,-0.4991587530695201
-0.36,-0.88,-0.5548222314549114
-0.33999999999999997,-0.88,-0.6017358318155227
-0.31999999999999995,-0.88,-0.639159698648841
-0.29999999999999993,-0.88,-0.6665036352189699
-0.28,-0.88,-0.6833364113117233
-0.26,-0.88,-0.6893925639927048
-0.24,-0.88,-0.6845765841163656
-0.21999999999999997,-0.88,-0.6689644225622827
-0.19999999999999996,-0.88,-0.6428022924444169
-0.17999999999999994,-0.88,-0.6065027861832256
-0.16000000000000003,-0.88,-0.5606383686767228
-0.14,-0.88,-0.5059323491870601
-0.12,-0.88,-0.4432474743213812
-0.09999999999999998,-0.88,-0.37357232200244783
-0.07999999999999996,-0.88,-0.29800571100424766
-0.05999999999999994,-0.88,-0.21773937192352746
-0.040000000000000036,-0.88,-0.1340391528763774
-0.020000000000000018,-0.88,-0.04822505631725825
0.0,-0.88,0.038349578188236436
0.020000000000000018,-0.88,0.12431941693677508
0.040000000000000036,-0.88,0.20832866421540097
0.06000000000000005,-0.88,0.28905244400983826
0.08000000000000007,-0.88,0.36521769409067995
0.10000000000000009,-0.88,0.4356232429652366
0.1200000000000001,-0.88,0.4991587530695199
0.14000000000000012,-0.88,0.5548222314549112
0.15999999999999992,-0.88,0.6017358318155227
0.17999999999999994,-0.88,0.6391596986488408
0.19999999999999996,-0.88,0.6665036352189698
0.21999999999999997,-0.88,0.6833364113117232
0.24,-0.88,0.6893925639927048
0.26,-0.88,0.6845765841163657
0.28,-0.88,0.6689644225622826
0.30000000000000004,-0.88,0.6428022924444166
0.32000000000000006,-0.88,0.6065027861832256
0.3400000000000001,-0.88,0.5606383686767227
0.3600000000000001,-0.88,0.5059323491870599
0.3800000000000001,-0.88,0.44324747432138106
0.40000000000000013,-0.88,0.37357232200244794
0.41999999999999993,-0.88,0.29800571100424744
0.43999999999999995,-0.88,0.21773937192352744
0.45999999999999996,-0.88,0.13403915287637733
0.48,-0.88,0.04822505631725822
0.5,-0.88,-0.03834957818823646
0.52,-0.88,-0.12431941693677512
0.54,-0.88,-0.208328664215401
0.56,-0.88,-0.28905244400983826
0.5800000000000001,-0.88,-0.36521769409068006
0.6000000000000001,-0.88,-0.4356232429652366
0.6200000000000001,-0.88,-0.49915875306951996
0.6400000000000001,-0.88,-0.5548222314549114
0.6600000000000001,-0.88,-0.6017358318155228
0.6799999999999999,-0.88,-0.6391596986488407
0.7,-0.88,-0.6665036352189697
0.72,-0.88,-0.6833364113117232
0.74,-0.88,-0.6893925639927047
0.76,-0.88,-0.6845765841163656
0.78,-0.88,-0.6689644225622826
0.8,-0.88,-0.6428022924444168
0.8200000000000001,-0.88,-0.6065027861832256
0.8400000000000001,-0.88,-0.5606383686767226
0.8600000000000001,-0.88,-0.5059323491870595
0.8800000000000001,-0.88,-0.4432474743213812
0.9000000000000001,-0.88,-0.3735723220024479
0.9199999999999999,-0.88,-0.2980057110042476
0.94,-0.88,-0.2177393719235276
0.96,-0.88,-0.13403915287637758
0.98,-0.88,-0.048225056317258326
1.0,-0.88,0.03834957818823635

-1.0,-0.86,0.06517984398476649
-0.98,-0.86,0.15754856667791073
-0.96,-0.86,0.24743265435959239
-0.94,-0.86,0.3334145812729202
-0.92,-0.86,0.41413836106735763
-0.9,-0.86,0.4883309315134977
-0.88,-0.86,0.5548222314549113
-0.86,-0.86,0.6125636533715451
-0.84,-0.86,0.66064458054672
-0.8200000000000001,-0.86,0.6983067480367299
-0.8,-0.86,0.7249562009619693
-0.78,-0.86,0.7401726615301955
-0.76,-0.86,0.7437161570683742
-0.74,-0.86,0.7355308045350879
-0.72,-0.86,0.7157456918294786
-0.7,-0.86,0.6846728419979667
-0.6799999999999999,-0.86,0.6428022924444166
-0.6599999999999999,-0.86,0.5907943667475412
-0.64,-0.86,0.5294692609636094
-0.62,-0.86,0.4597941086446761
-0.6,-0.86,0.38286772856472906
-0.5800000000000001,-0.86,0.2999032956912215
-0.56,-0.86,0.21220920869111842
-0.54,-0.86,0.12116845570231985
-0.52,-0.86,0.028216803784568735
-0.5,-0.86,-0.06517984398476659
-0.48,-0.86,-0.15754856667791073
-0.45999999999999996,-0.86,-0.2474326543595924
-0.43999999999999995,-0.86,-0.33341458127292023
-0.42000000000000004,-0.86,-0.4141383610673577
-0.4,-0.86,-0.4883309315134978
-0.38,-0.86,-0.5548222314549114
-0.36,-0.86,-0.6125636533715451
-0.33999999999999997,-0.86,-0.66064458054672
-0.31999999999999995,-0.86,-0.69830674803673
-0.29999999999999993,-0.86,-0.7249562009619692
-0.28,-0.86,-0.7401726615301953
-0.26,-0.86,-0.7437161570683745
-0.24,-0.86,-0.735530804535088
-0.21999999999999997,-0.86,-0.7157456918294787
-0.19999999999999996,-0.86,-0.6846728419979666
-0.17999999999999994,-0.86,-0.6428022924444166
-0.16000000000000003,-0.86,-0.5907943667475414
-0.14,-0.86,-0.5294692609636092
-0.12,-0.86,-0.4597941086446759
-0.09999999999999998,-0.86,-0.3828677285647291
-0.07999999999999996,-0.86,-0.2999032956912213
-0.05999999999999994,-0.86,-0.21220920869111826
-0.040000000000000036,-0.86,-0.12116845570231981
-0.020000000000000018,-0.86,-0.028216803784568718
0.0,-0.86,0.06517984398476659
0.020000000000000018,-0.86,0.15754856667791076
0.040000000000000036,-0.86,0.24743265435959244
0.06000000000000005,-0.86,0.3334145812729201
0.08000000000000007,-0.86,0.41413836106735763
0.10000000000000009,-0.86,0.4883309315134976
0.1200000000000001,-0.86,0.5548222314549112
0.14000000000000012,-0.86,0.612563653371545
0.15999999999999992,-0.86,0.6606445805467198
0.17999999999999994,-0.86,0.6983067480367299
0.19999999999999996,-0.86,0.7249562009619692
0.21999999999999997,-0.86,0.7401726615301956
0.24,-0.86,0.7437161570683745
0.26,-0.86,0.735530804535088
0.28,-0.86,0.7157456918294783
0.30000000000000004,-0.86,0.6846728419979667
0.32000000000000006,-0.86,0.6428022924444166