TITLE = "Solution" 
VARIABLES = "x", "y", "sol" 
ZONE STRANDID=1, SOLUTIONTIME= 0.5900000000000003, I= 101, J =101, DATAPACKING=POINT 
-1.0,-1.0,0.10052639982222891
-0.98,-1.0,0.04303126898283821
-0.96,-1.0,-0.01514249067404599
-0.94,-1.0,-0.07307744420731498
-0.92,-1.0,-0.1298599227910855
-0.9,-1.0,-0.1845944328178828
-0.88,-1.0,-0.23641777836777317
-0.86,-1.0,-0.28451267432366834
-0.84,-1.0,-0.3281206354458462
-0.8200000000000001,-1.0,-0.36655393813727627
-0.8,-1.0,-0.39920646625557266
-0.78,-1.0,-0.4255632699266349
-0.76,-1.0,-0.4452086866117792
-0.74,-1.0,-0.4578328963542775
-0.72,-1.0,-0.46323680782515314
-0.7,-1.0,-0.4613351981123705
-0.6799999999999999,-1.0,-0.45215805673706677
-0.6599999999999999,-1.0,-0.4358501127008892
-0.64,-1.0,-0.4126685520231816
-0.62,-1.0,-0.3829789617638248
-0.6,-1.0,-0.34724956449690997
-0.5800000000000001,-1.0,-0.30604383416104375
-0.56,-1.0,-0.2600116097387333
-0.54,-1.0,-0.20987884690743608
-0.52,-1.0,-0.1564361692848626
-0.5,-1.0,-0.10052639982222893
-0.48,-1.0,-0.043031268982838156
-0.45999999999999996,-1.0,0.015142490674046008
-0.43999999999999995,-1.0,0.07307744420731502
-0.42000000000000004,-1.0,0.12985992279108555
-0.4,-1.0,0.1845944328178829
-0.38,-1.0,0.23641777836777322
-0.36,-1.0,0.2845126743236684
-0.33999999999999997,-1.0,0.32812063544584624
-0.31999999999999995,-1.0,0.36655393813727616
-0.29999999999999993,-1.0,0.39920646625557255
-0.28,-1.0,0.425563269926635
-0.26,-1.0,0.4452086866117792
-0.24,-1.0,0.45783289635427765
-0.21999999999999997,-1.0,0.46323680782515314
-0.19999999999999996,-1.0,0.46133519811237045
-0.17999999999999994,-1.0,0.45215805673706677
-0.16000000000000003,-1.0,0.435850112700889
-0.14,-1.0,0.4126685520231815
-0.12,-1.0,0.3829789617638248
-0.09999999999999998,-1.0,0.3472495644969099
-0.07999999999999996,-1.0,0.3060438341610438
-0.05999999999999994,-1.0,0.2600116097387333
-0.040000000000000036,-1.0,0.20987884690743608
-0.020000000000000018,-1.0,0.15643616928486254
0.0,-1.0,0.10052639982222883
0.020000000000000018,-1.0,0.043031268982838135
0.040000000000000036,-1.0,-0.015142490674046022
0.06000000000000005,-1.0,-0.07307744420731505
0.08000000000000007,-1.0,-0.12985992279108555
0.10000000000000009,-1.0,-0.1845944328178829
0.1200000000000001,-1.0,-0.23641777836777314
0.14000000000000012,-1.0,-0.28451267432366845
0.15999999999999992,-1.0,-0.32812063544584613
0.17999999999999994,-1.0,-0.36655393813727616
0.19999999999999996,-1.0,-0.3992064662555726
0.21999999999999997,-1.0,-0.42556326992663507
0.24,-1.0,-0.44520868661177915
0.26,-1.0,-0.45783289635427743
0.28,-1.0,-0.4632368078251532
0.30000000000000004,-1.0,-0.4613351981123704
0.32000000000000006,-1.0,-0.4521580567370667
0.3400000000000001,-1.0,-0.4358501127008891
0.3600000000000001,-1.0,-0.4126685520231816
0.3800000000000001,-1.0,-0.3829789617638247
0.40000000000000013,-1.0,-0.34724956449690975
0.41999999999999993,-1.0,-0.3060438341610438
0.43999999999999995,-1.0,-0.2600116097387333
0.45999999999999996,-1.0,-0.209878846907436
0.48,-1.0,-0.15643616928486254
0.5,-1.0,-0.1005263998222288
0.52,-1.0,-0.04303126898283811
0.54,-1.0,0.01514249067404604
0.56,-1.0,0.07307744420731507
0.5800000000000001,-1.0,0.1298599227910856
0.6000000000000001,-1.0,0.18459443281788293
0.6200000000000001,-1.0,0.2364177783677732
0.6400000000000001,-1.0,0.28451267432366845
0.6600000000000001,-1.0,0.32812063544584613
0.6799999999999999,-1.0,0.3665539381372764
0.7,-1.0,0.39920646625557255
0.72,-1.0,0.42556326992663507
0.74,-1.0,0.44520868661177926
0.76,-1.0,0.45783289635427754
0.78,-1.0,0.46323680782515325
0.8,-1.0,0.4613351981123703
0.8200000000000001,-1.0,0.4521580567370667
0.8400000000000001,-1.0,0.43585011270088897
0.8600000000000001,-1.0,0.4126685520231814
0.8800000000000001,-1.0,0.3829789617638246
0.9000000000000001,-1.0,0.34724956449690997
0.9199999999999999,-1.0,0.3060438341610438
0.94,-1.0,0.2600116097387333
0.96,-1.0,0.20987884690743602
0.98,-1.0,0.15643616928486254
1.0,-1.0,0.10052639982222891

-1.0,-0.98,0.04303126898283821
-0.98,-0.98,-0.005295949269579443
-0.96,-0.98,-0.05353964723836907
-0.94,-0.98,-0.10093899298717465
-0.92,-0.98,-0.14674647051854084
-0.9,-0.98,-0.19023966854773733
-0.88,-0.98,-0.23073267336026643
-0.86,-0.98,-0.26758688608088627
-0.84,-0.98,-0.30022109375935285
-0.8200000000000001,-0.98,-0.32812063544584613
-0.8,-0.98,-0.3508455187015917
-0.78,-0.98,-0.3680373585424593
-0.76,-0.98,-0.37942502938425104
-0.74,-0.98,-0.38482894085512676
-0.72,-0.98,-0.3841638700430508
-0.7,-0.98,-0.3774403055120238
-0.6799999999999999,-0.98,-0.36476428189116294
-0.6599999999999999,-0.98,-0.3463357076452584
-0.64,-0.98,-0.3224452123988649
-0.62,-0.98,-0.29346956353350806
-0.6,-0.98,-0.259865724341008
-0.5800000000000001,-0.98,-0.22216364743939132
-0.56,-0.98,-0.18095791710352527
-0.54,-0.98,-0.13689837231591667
-0.52,-0.98,-0.0906798584177624
-0.5,-0.98,-0.04303126898283817
-0.48,-0.98,0.005295949269579457
-0.45999999999999996,-0.98,0.05353964723836907
-0.43999999999999995,-0.98,0.10093899298717471
-0.42000000000000004,-0.98,0.14674647051854092
-0.4,-0.98,0.19023966854773744
-0.38,-0.98,0.2307326733602665
-0.36,-0.98,0.2675868860808863
-0.33999999999999997,-0.98,0.30022109375935274
-0.31999999999999995,-0.98,0.3281206354458461
-0.29999999999999993,-0.98,0.3508455187015918
-0.28,-0.98,0.36803735854245934
-0.26,-0.98,0.37942502938425116
-0.24,-0.98,0.38482894085512676
-0.21999999999999997,-0.98,0.38416387004305075
-0.19999999999999996,-0.98,0.37744030551202384
-0.17999999999999994,-0.98,0.36476428189116283
-0.16000000000000003,-0.98,0.34633570764525823
-0.14,-0.98,0.322445212398865
-0.12,-0.98,0.293469563533508
-0.09999999999999998,-0.98,0.2598657243410081
-0.07999999999999996,-0.98,0.22216364743939132
-0.05999999999999994,-0.98,0.18095791710352527
-0.040000000000000036,-0.98,0.13689837231591664
-0.020000000000000018,-0.98,0.09067985841776233
0.0,-0.98,0.04303126898283815
0.020000000000000018,-0.98,-0.005295949269579464
0.040000000000000036,-0.98,-0.053539647238369126
0.06000000000000005,-0.98,-0.10093899298717472
0.08000000000000007,-0.98,-0.1467464705185409
0.10000000000000009,-0.98,-0.19023966854773738
0.1200000000000001,-0.98,-0.23073267336026648
0.14000000000000012,-0.98,-0.2675868860808862
0.15999999999999992,-0.98,-0.3002210937593528
0.17999999999999994,-0.98,-0.32812063544584613
0.19999999999999996,-0.98,-0.3508455187015918
0.21999999999999997,-0.98,-0.3680373585424592
0.24,-0.98,-0.3794250293842509
0.26,-0.98,-0.38482894085512687
0.28,-0.98,-0.3841638700430508
0.30000000000000004,-0.98,-0.3774403055120238
0.32000000000000006,-0.98,-0.36476428189116283
0.3400000000000001,-0.98,-0.34633570764525834
0.3600000000000001,-0.98,-0.3224452123988649
0.3800000000000001,-0.98,-0.29346956353350795
0.40000000000000013,-0.98,-0.25986572434100813
0.41999999999999993,-0.98,-0.22216364743939132
0.43999999999999995,-0.98,-0.1809579171035252
0.45999999999999996,-0.98,-0.13689837231591664
0.48,-0.98,-0.09067985841776231
0.5,-0.98,-0.04303126898283813
0.52,-0.98,0.005295949269579492
0.54,-0.98,0.05353964723836914
0.56,-0.98,0.10093899298717475
0.5800000000000001,-0.98,0.14674647051854095
0.6000000000000001,-0.98,0.19023966854773738
0.6200000000000001,-0.98,0.2307326733602665
0.6400000000000001,-0.98,0.26758688608088615
0.6600000000000001,-0.98,0.3002210937593529
0.6799999999999999,-0.98,0.328120635445846
0.7,-0.98,0.3508455187015918
0.72,-0.98,0.3680373585424594
0.74,-0.98,0.37942502938425104
0.76,-0.98,0.3848289408551269
0.78,-0.98,0.38416387004305064
0.8,-0.98,0.3774403055120238
0.8200000000000001,-0.98,0.3647642818911628
0.8400000000000001,-0.98,0.3463357076452582
0.8600000000000001,-0.98,0.32244521239886487
0.8800000000000001,-0.98,0.2934695635335081
0.9000000000000001,-0.98,0.2598657243410081
0.9199999999999999,-0.98,0.2221636474393913
0.94,-0.98,0.18095791710352524
0.96,-0.98,0.13689837231591662
0.98,-0.98,0.09067985841776238
1.0,-0.98,0.04303126898283821

-1.0,-0.96,-0.01514249067404598
-0.98,-0.96,-0.053539647238369056
-0.96,-0.96,-0.09109245158270811
-0.94,-0.96,-0.12720867354959492
-0.92,-0.96,-0.16131873874382657
-0.9,-0.96,-0.19288471106092445
-0.88,-0.96,-0.2214087762608504
-0.86,-0.96,-0.24644109279595086
-0.84,-0.96,-0.26758688608088615
-0.8200000000000001,-0.96,-0.2845126743236683
-0.8,-0.96,-0.2969515277327328
-0.78,-0.96,-0.30470727815920784
-0.76,-0.96,-0.3076576127858069
-0.74,-0.96,-0.3057560030730244
-0.72,-0.96,-0.2990324385419974
-0.7,-0.96,-0.2875929538218432
-0.6799999999999999,-0.96,-0.27161795642021536
-0.6599999999999999,-0.96,-0.2513593815891385
-0.64,-0.96,-0.2271367191555847
-0.62,-0.96,-0.19933197497604813
-0.6,-0.96,-0.16838364647598938
-0.5800000000000001,-0.96,-0.13477980728348946
-0.56,-0.96,-0.09905041001657462
-0.54,-0.96,-0.06175892861385155
-0.52,-0.96,-0.023493472013892253
-0.5,-0.96,0.015142490674045994
-0.48,-0.96,0.053539647238369056
-0.45999999999999996,-0.96,0.09109245158270815
-0.43999999999999995,-0.96,0.127208673549595
-0.42000000000000004,-0.96,0.16131873874382666
-0.4,-0.96,0.19288471106092456
-0.38,-0.96,0.22140877626085054
-0.36,-0.96,0.24644109279595078
-0.33999999999999997,-0.96,0.26758688608088615
-0.31999999999999995,-0.96,0.2845126743236684
-0.29999999999999993,-0.96,0.2969515277327328
-0.28,-0.96,0.30470727815920795
-0.26,-0.96,0.30765761278580694
-0.24,-0.96,0.30575600307302436
-0.21999999999999997,-0.96,0.2990324385419974
-0.19999999999999996,-0.96,0.2875929538218432
-0.17999999999999994,-0.96,0.27161795642021525
-0.16000000000000003,-0.96,0.25135938158913856
-0.14,-0.96,0.2271367191555847
-0.12,-0.96,0.1993319749760482
-0.09999999999999998,-0.96,0.16838364647598936
-0.07999999999999996,-0.96,0.13477980728348946
-0.05999999999999994,-0.96,0.0990504100165746
-0.040000000000000036,-0.96,0.06175892861385148
-0.020000000000000018,-0.96,0.02349347201389224
0.0,-0.96,-0.015142490674045994
0.020000000000000018,-0.96,-0.05353964723836911
0.040000000000000036,-0.96,-0.09109245158270816
0.06000000000000005,-0.96,-0.12720867354959503
0.08000000000000007,-0.96,-0.16131873874382663
0.10000000000000009,-0.96,-0.19288471106092453
0.1200000000000001,-0.96,-0.22140877626085043
0.14000000000000012,-0.96,-0.24644109279595083
0.15999999999999992,-0.96,-0.2675868860808861
0.17999999999999994,-0.96,-0.28451267432366834
0.19999999999999996,-0.96,-0.29695152773273276
0.21999999999999997,-0.96,-0.3047072781592077
0.24,-0.96,-0.307657612785807
0.26,-0.96,-0.3057560030730244
0.28,-0.96,-0.2990324385419974
0.30000000000000004,-0.96,-0.2875929538218432
0.32000000000000006,-0.96,-0.27161795642021536
0.3400000000000001,-0.96,-0.25135938158913856
0.3600000000000001,-0.96,-0.2271367191555847
0.3800000000000001,-0.96,-0.1993319749760482
0.40000000000000013,-0.96,-0.16838364647598938
0.41999999999999993,-0.96,-0.1347798072834894
0.43999999999999995,-0.96,-0.0990504100165746
0.45999999999999996,-0.96,-0.06175892861385148
0.48,-0.96,-0.023493472013892232
0.5,-0.96,0.015142490674046022
0.52,-0.96,0.05353964723836911
0.54,-0.96,0.09109245158270819
0.56,-0.96,0.127208673549595
0.5800000000000001,-0.96,0.16131873874382663
0.6000000000000001,-0.96,0.19288471106092456
0.6200000000000001,-0.96,0.2214087762608504
0.6400000000000001,-0.96,0.24644109279595086
0.6600000000000001,-0.96,0.2675868860808861
0.6799999999999999,-0.96,0.2845126743236683
0.7,-0.96,0.2969515277327328
0.72,-0.96,0.3047072781592078
0.74,-0.96,0.30765761278580706
0.76,-0.96,0.30575600307302425
0.78,-0.96,0.2990324385419973
0.8,-0.96,0.28759295382184313
0.8200000000000001,-0.96,0.2716179564202152
0.8400000000000001,-0.96,0.2513593815891385
0.8600000000000001,-0.96,0.22713671915558475
0.8800000000000001,-0.96,0.1993319749760482
0.9000000000000001,-0.96,0.16838364647598933
0.9199999999999999,-0.96,0.1347798072834894
0.94,-0.96,0.09905041001657457
0.96,-0.96,0.06175892861385153
0.98,-0.96,0.023493472013892278
1.0,-0.96,-0.01514249067404598

-1.0,-0.94,-0.07307744420731493
-0.98,-0.94,-0.10093899298717464
-0.96,-0.94,-0.12720867354959492
-0.94,-0.94,-0.15147219733936004
-0.92,-0.94,-0.1733469140919786
-0.9,-0.94,-0.19248784645693962
-0.88,-0.94,-0.20859313049660883
-0.86,-0.94,-0.2214087762608503
-0.84,-0.94,-0.23073267336026626
-0.8200000000000001,-0.94,-0.23641777836777278
-0.8,-0.94,-0.23837443378128437
-0.78,-0.94,-0.23657178197608045
-0.76,-0.94,-0.23103825184798138
-0.74,-0.94,-0.22186111047267768
-0.72,-0.94,-0.2091850868518167
-0.7,-0.94,-0.19321008945018892
-0.6799999999999999,-0.94,-0.1741880535198187
-0.6599999999999999,-0.94,-0.1524189679305415
-0.64,-0.94,-0.12824614416632166
-0.62,-0.94,-0.10205080209806594
-0.6,-0.94,-0.07424605791852942
-0.5800000000000001,-0.94,-0.04527040905317254
-0.56,-0.94,-0.015580818793815652
-0.54,-0.94,0.014354490285449814
-0.52,-0.94,0.044063420477956826
-0.5,-0.94,0.07307744420731496
-0.48,-0.94,0.10093899298717467
-0.45999999999999996,-0.94,0.127208673549595
-0.43999999999999995,-0.94,0.15147219733936013
-0.42000000000000004,-0.94,0.1733469140919787
-0.4,-0.94,0.19248784645693973
-0.38,-0.94,0.20859313049660877
-0.36,-0.94,0.22140877626085032
-0.33999999999999997,-0.94,0.23073267336026634
-0.31999999999999995,-0.94,0.2364177783677728
-0.29999999999999993,-0.94,0.23837443378128445
-0.28,-0.94,0.23657178197608053
-0.26,-0.94,0.23103825184798127
-0.24,-0.94,0.22186111047267765
-0.21999999999999997,-0.94,0.2091850868518167
-0.19999999999999996,-0.94,0.1932100894501888
-0.17999999999999994,-0.94,0.1741880535198187
-0.16000000000000003,-0.94,0.15241896793054152
-0.14,-0.94,0.12824614416632169
-0.12,-0.94,0.10205080209806591
-0.09999999999999998,-0.94,0.07424605791852942
-0.07999999999999996,-0.94,0.04527040905317255
-0.05999999999999994,-0.94,0.01558081879381559
-0.040000000000000036,-0.94,-0.014354490285449835
-0.020000000000000018,-0.94,-0.044063420477956826
0.0,-0.94,-0.07307744420731502
0.020000000000000018,-0.94,-0.10093899298717467
0.040000000000000036,-0.94,-0.12720867354959503
0.06000000000000005,-0.94,-0.15147219733936013
0.08000000000000007,-0.94,-0.1733469140919787
0.10000000000000009,-0.94,-0.19248784645693964
0.1200000000000001,-0.94,-0.2085931304966088
0.14000000000000012,-0.94,-0.22140877626085023
0.15999999999999992,-0.94,-0.23073267336026632
0.17999999999999994,-0.94,-0.23641777836777275
0.19999999999999996,-0.94,-0.23837443378128426
0.21999999999999997,-0.94,-0.2365717819760805
0.24,-0.94,-0.23103825184798138
0.26,-0.94,-0.22186111047267768
0.28,-0.94,-0.2091850868518167
0.30000000000000004,-0.94,-0.19321008945018886
0.32000000000000006,-0.94,-0.17418805351981875
0.3400000000000001,-0.94,-0.1524189679305415
0.3600000000000001,-0.94,-0.12824614416632174
0.3800000000000001,-0.94,-0.10205080209806594
0.40000000000000013,-0.94,-0.07424605791852942
0.41999999999999993,-0.94,-0.04527040905317253
0.43999999999999995,-0.94,-0.01558081879381559
0.45999999999999996,-0.94,0.0143544902854498
0.48,-0.94,0.04406342047795686
0.5,-0.94,0.07307744420731502
0.52,-0.94,0.10093899298717471
0.54,-0.94,0.127208673549595
0.56,-0.94,0.1514721973393601
0.5800000000000001,-0.94,0.1733469140919787
0.6000000000000001,-0.94,0.19248784645693962
0.6200000000000001,-0.94,0.2085931304966088
0.6400000000000001,-0.94,0.2214087762608503
0.6600000000000001,-0.94,0.23073267336026626
0.6799999999999999,-0.94,0.23641777836777278
0.7,-0.94,0.2383744337812843
0.72,-0.94,0.23657178197608056
0.74,-0.94,0.23103825184798124
0.76,-0.94,0.2218611104726776
0.78,-0.94,0.20918508685181675
0.8,-0.94,0.19321008945018875
0.8200000000000001,-0.94,0.1741880535198187
0.8400000000000001,-0.94,0.15241896793054158
0.8600000000000001,-0.94,0.12824614416632174
0.8800000000000001,-0.94,0.10205080209806588
0.9000000000000001,-0.94,0.07424605791852938
0.9199999999999999,-0.94,0.04527040905317252
0.94,-0.94,0.015580818793815614
0.96,-0.94,-0.014354490285449807
0.98,-0.94,-0.04406342047795682
1.0,-0.94,-0.07307744420731493

-1.0,-0.92,-0.12985992279108546
-0.98,-0.92,-0.14674647051854078
-0.96,-0.92,-0.16131873874382657
-0.94,-0.92,-0.1733469140919786
-0.92,-0.92,-0.1826413050524731
-0.9,-0.92,-0.18905533352766288
-0.88,-0.92,-0.1924878464569394
-0.86,-0.92,-0.19288471106092414
-0.84,-0.92,-0.19023966854773688
-0.8200000000000001,-0.92,-0.18459443281788235
-0.8,-0.92,-0.17603803261112055
-0.78,-0.92,-0.16470540747005805
-0.76,-0.92,-0.1507752796629513
-0.74,-0.92,-0.1344673356267736
-0.72,-0.92,-0.11603876138086909
-0.7,-0.92,-0.0957801865497921
-0.6799999999999999,-0.92,-0.07401110096051486
-0.6599999999999999,-0.92,-0.0510748160970017
-0.64,-0.92,-0.027333050873022645
-0.62,-0.92,-0.003160227108802767
-0.6,-0.92,0.021062435324751043
-0.5800000000000001,-0.92,0.04495293057114443
-0.56,-0.92,0.06813449124885193
-0.54,-0.92,0.0902415302979927
-0.52,-0.92,0.11092540650665703
-0.5,-0.92,0.12985992279108546
-0.48,-0.92,0.14674647051854087
-0.45999999999999996,-0.92,0.1613187387438266
-0.43999999999999995,-0.92,0.17334691409197867
-0.42000000000000004,-0.92,0.18264130505247325
-0.4,-0.92,0.18905533352766285
-0.38,-0.92,0.19248784645693948
-0.36,-0.92,0.19288471106092422
-0.33999999999999997,-0.92,0.1902396685477369
-0.31999999999999995,-0.92,0.1845944328178824
-0.29999999999999993,-0.92,0.17603803261112058
-0.28,-0.92,0.16470540747005796
-0.26,-0.92,0.1507752796629513
-0.24,-0.92,0.13446733562677363
-0.21999999999999997,-0.92,0.11603876138086894
-0.19999999999999996,-0.92,0.09578018654979209
-0.17999999999999994,-0.92,0.07401110096051489
-0.16000000000000003,-0.92,0.051074816097001714
-0.14,-0.92,0.027333050873022603
-0.12,-0.92,0.00316022710880276
-0.09999999999999998,-0.92,-0.02106243532475103
-0.07999999999999996,-0.92,-0.04495293057114449
-0.05999999999999994,-0.92,-0.06813449124885193
-0.040000000000000036,-0.92,-0.0902415302979927
-0.020000000000000018,-0.92,-0.110925406506657
0.0,-0.92,-0.12985992279108544
0.020000000000000018,-0.92,-0.14674647051854092
0.040000000000000036,-0.92,-0.1613187387438266
0.06000000000000005,-0.92,-0.1733469140919787
0.08000000000000007,-0.92,-0.18264130505247314
0.10000000000000009,-0.92,-0.18905533352766282
0.1200000000000001,-0.92,-0.19248784645693937
0.14000000000000012,-0.92,-0.19288471106092417
0.15999999999999992,-0.92,-0.19023966854773688
0.17999999999999994,-0.92,-0.18459443281788226
0.19999999999999996,-0.92,-0.17603803261112058
0.21999999999999997,-0.92,-0.16470540747005805
0.24,-0.92,-0.1507752796629513
0.26,-0.92,-0.13446733562677363
0.28,-0.92,-0.11603876138086902
0.30000000000000004,-0.92,-0.09578018654979215
0.32000000000000006,-0.92,-0.07401110096051484
0.3400000000000001,-0.92,-0.05107481609700179
0.3600000000000001,-0.92,-0.027333050873022638
0.3800000000000001,-0.92,-0.003160227108802788
0.40000000000000013,-0.92,0.02106243532475103
0.41999999999999993,-0.92,0.0449529305711445
0.43999999999999995,-0.92,0.06813449124885185
0.45999999999999996,-0.92,0.09024153029799273
0.48,-0.92,0.11092540650665704
0.5,-0.92,0.1298599227910855
0.52,-0.92,0.1467464705185409
0.54,-0.92,0.16131873874382657
0.56,-0.92,0.17334691409197867
0.5800000000000001,-0.92,0.18264130505247314
0.6000000000000001,-0.92,0.18905533352766282
0.6200000000000001,-0.92,0.1924878464569394
0.6400000000000001,-0.92,0.19288471106092417
0.6600000000000001,-0.92,0.19023966854773688
0.6799999999999999,-0.92,0.18459443281788232
0.7,-0.92,0.1760380326111206
0.72,-0.92,0.16470540747005796
0.74,-0.92,0.15077527966295126
0.76,-0.92,0.13446733562677365
0.78,-0.92,0.11603876138086897
0.8,-0.92,0.09578018654979209
0.8200000000000001,-0.92,0.07401110096051494
0.8400000000000001,-0.92,0.05107481609700175
0.8600000000000001,-0.92,0.02733305087302259
0.8800000000000001,-0.92,0.003160227108802746
0.9000000000000001,-0.92,-0.02106243532475103
0.9199999999999999,-0.92,-0.044952930571144474
0.94,-0.92,-0.0681344912488519
0.96,-0.92,-0.09024153029799273
0.98,-0.92,-0.11092540650665694
1.0,-0.92,-0.12985992279108546

-1.0,-0.9,-0.18459443281788274
-0.98,-0.9,-0.1902396685477373
-0.96,-0.9,-0.19288471106092445
-0.94,-0.9,-0.19248784645693962
-0.92,-0.9,-0.1890553335276629
-0.9,-0.9,-0.18264130505247286
-0.88,-0.9,-0.1733469140919782
-0.86,-0.9,-0.16131873874382607
-0.84,-0.9,-0.14674647051854034
-0.8200000000000001,-0.9,-0.12985992279108474
-0.8,-0.9,-0.1109254065066561
-0.78,-0.9,-0.09024153029799144
-0.76,-0.9,-0.06813449124885029
-0.74,-0.9,-0.04495293057114263
-0.72,-0.9,-0.02106243532474889
-0.7,-0.9,0.0031602271088051193
-0.6799999999999999,-0.9,0.027333050873024997
-0.6599999999999999,-0.9,0.0510748160970041
-0.64,-0.9,0.07401110096051734
-0.62,-0.9,0.09578018654979453
-0.6,-0.9,0.11603876138087116
-0.5800000000000001,-0.9,0.13446733562677554
-0.56,-0.9,0.15077527966295282
-0.54,-0.9,0.16470540747005905
-0.52,-0.9,0.17603803261112125
-0.5,-0.9,0.1845944328178828
-0.48,-0.9,0.1902396685477373
-0.45999999999999996,-0.9,0.1928847110609245
-0.43999999999999995,-0.9,0.19248784645693975
-0.42000000000000004,-0.9,0.18905533352766288
-0.4,-0.9,0.1826413050524729
-0.38,-0.9,0.1733469140919783
-0.36,-0.9,0.1613187387438261
-0.33999999999999997,-0.9,0.14674647051854037
-0.31999999999999995,-0.9,0.12985992279108474
-0.29999999999999993,-0.9,0.11092540650665605
-0.28,-0.9,0.0902415302979914
-0.26,-0.9,0.06813449124885027
-0.24,-0.9,0.04495293057114251
-0.21999999999999997,-0.9,0.021062435324748847
-0.19999999999999996,-0.9,-0.0031602271088051054
-0.17999999999999994,-0.9,-0.027333050873024997
-0.16000000000000003,-0.9,-0.051074816097004136
-0.14,-0.9,-0.07401110096051734
-0.12,-0.9,-0.09578018654979449
-0.09999999999999998,-0.9,-0.11603876138087124
-0.07999999999999996,-0.9,-0.13446733562677554
-0.05999999999999994,-0.9,-0.15077527966295276
-0.040000000000000036,-0.9,-0.16470540747005902
-0.020000000000000018,-0.9,-0.17603803261112122
0.0,-0.9,-0.1845944328178829
0.020000000000000018,-0.9,-0.19023966854773733
0.040000000000000036,-0.9,-0.19288471106092453
0.06000000000000005,-0.9,-0.19248784645693967
0.08000000000000007,-0.9,-0.18905533352766282
0.10000000000000009,-0.9,-0.18264130505247284
0.1200000000000001,-0.9,-0.17334691409197822
0.14000000000000012,-0.9,-0.16131873874382607
0.15999999999999992,-0.9,-0.14674647051854028
0.17999999999999994,-0.9,-0.12985992279108474
0.19999999999999996,-0.9,-0.11092540650665608
0.21999999999999997,-0.9,-0.09024153029799142
0.24,-0.9,-0.06813449124885029
0.26,-0.9,-0.04495293057114258
0.28,-0.9,-0.021062435324748906
0.30000000000000004,-0.9,0.003160227108805147
0.32000000000000006,-0.9,0.027333050873024914
0.3400000000000001,-0.9,0.05107481609700411
0.3600000000000001,-0.9,0.0740111009605173
0.3800000000000001,-0.9,0.09578018654979445
0.40000000000000013,-0.9,0.11603876138087127
0.41999999999999993,-0.9,0.13446733562677546
0.43999999999999995,-0.9,0.15077527966295284
0.45999999999999996,-0.9,0.16470540747005902
0.48,-0.9,0.17603803261112128
0.5,-0.9,0.18459443281788282
0.52,-0.9,0.1902396685477373
0.54,-0.9,0.1928847110609245
0.56,-0.9,0.19248784645693962
0.5800000000000001,-0.9,0.18905533352766282
0.6000000000000001,-0.9,0.18264130505247284
0.6200000000000001,-0.9,0.17334691409197822
0.6400000000000001,-0.9,0.16131873874382605
0.6600000000000001,-0.9,0.14674647051854028
0.6799999999999999,-0.9,0.12985992279108477
0.7,-0.9,0.11092540650665601
0.72,-0.9,0.0902415302979914
0.74,-0.9,0.06813449124885029
0.76,-0.9,0.044952930571142566
0.78,-0.9,0.02106243532474883
0.8,-0.9,-0.0031602271088050637
0.8200000000000001,-0.9,-0.02733305087302497
0.8400000000000001,-0.9,-0.05107481609700415
0.8600000000000001,-0.9,-0.07401110096051736
0.8800000000000001,-0.9,-0.09578018654979449
0.9000000000000001,-0.9,-0.11603876138087124
0.9199999999999999,-0.9,-0.13446733562677554
0.94,-0.9,-0.1507752796629528
0.96,-0.9,-0.16470540747005896
0.98,-0.9,-0.17603803261112125
1.0,-0.9,-0.18459443281788274

-1.0,-0.88,-0.236417778367773
-0.98,-0.88,-0.23073267336026643
-0.96,-0.88,-0.22140877626085037
-0.94,-0.88,-0.20859313049660883
-0.92,-0.88,-0.19248784645693945
-0.9,-0.88,-0.1733469140919782
-0.88,-0.88,-0.1514721973393596
-0.86,-0.88,-0.12720867354959442
-0.84,-0.88,-0.10093899298717394
-0.8200000000000001,-0.88,-0.07307744420731407
-0.8,-0.88,-0.04406342047795565
-0.78,-0.88,-0.01435449028544836
-0.76,-0.88,0.0155808187938173
-0.74,-0.88,0.045270409053174525
-0.72,-0.88,0.0742460579185317
-0.7,-0.88,0.10205080209806834
-0.6799999999999999,-0.88,0.12824614416632418
-0.6599999999999999,-0.88,0.15241896793054419
-0.64,-0.88,0.17418805351982145
-0.62,-0.88,0.19321008945019144
-0.6,-0.88,0.20918508685181905
-0.5800000000000001,-0.88,0.22186111047267953
-0.56,-0.88,0.23103825184798255
-0.54,-0.88,0.23657178197608114
-0.52,-0.88,0.23837443378128467
-0.5,-0.88,0.236417778367773
-0.48,-0.88,0.23073267336026645
-0.45999999999999996,-0.88,0.2214087762608505
-0.43999999999999995,-0.88,0.2085931304966088
-0.42000000000000004,-0.88,0.19248784645693948
-0.4,-0.88,0.1733469140919783
-0.38,-0.88,0.1514721973393596
-0.36,-0.88,0.12720867354959445
-0.33999999999999997,-0.88,0.1009389929871739
-0.31999999999999995,-0.88,0.07307744420731402
-0.29999999999999993,-0.88,0.0440634204779556
-0.28,-0.88,0.014354490285448308
-0.26,-0.88,-0.01558081879381737
-0.24,-0.88,-0.045270409053174594
-0.21999999999999997,-0.88,-0.07424605791853167
-0.19999999999999996,-0.88,-0.10205080209806834
-0.17999999999999994,-0.88,-0.1282461441663242
-0.16000000000000003,-0.88,-0.15241896793054419
-0.14,-0.88,-0.1741880535198214
-0.12,-0.88,-0.19321008945019152
-0.09999999999999998,-0.88,-0.20918508685181908
-0.07999999999999996,-0.88,-0.2218611104726795
-0.05999999999999994,-0.88,-0.2310382518479825
-0.040000000000000036,-0.88,-0.23657178197608109
-0.020000000000000018,-0.88,-0.23837443378128484
0.0,-0.88,-0.23641777836777308
0.020000000000000018,-0.88,-0.2307326733602665
0.040000000000000036,-0.88,-0.22140877626085048
0.06000000000000005,-0.88,-0.20859313049660877
0.08000000000000007,-0.88,-0.19248784645693942
0.10000000000000009,-0.88,-0.17334691409197822
0.1200000000000001,-0.88,-0.15147219733935954
0.14000000000000012,-0.88,-0.12720867354959436
0.15999999999999992,-0.88,-0.1009389929871739
0.17999999999999994,-0.88,-0.07307744420731406
0.19999999999999996,-0.88,-0.044063420477955625
0.21999999999999997,-0.88,-0.014354490285448353
0.24,-0.88,0.015580818793817328
0.26,-0.88,0.04527040905317451
0.28,-0.88,0.07424605791853173
0.30000000000000004,-0.88,0.10205080209806826
0.32000000000000006,-0.88,0.12824614416632418
0.3400000000000001,-0.88,0.15241896793054413
0.3600000000000001,-0.88,0.17418805351982136
0.3800000000000001,-0.88,0.19321008945019152
0.40000000000000013,-0.88,0.20918508685181894
0.41999999999999993,-0.88,0.2218611104726796
0.43999999999999995,-0.88,0.23103825184798246
0.45999999999999996,-0.88,0.23657178197608117
0.48,-0.88,0.23837443378128473
0.5,-0.88,0.23641777836777303
0.52,-0.88,0.23073267336026648
0.54,-0.88,0.2214087762608504
0.56,-0.88,0.20859313049660877
0.5800000000000001,-0.88,0.1924878464569394
0.6000000000000001,-0.88,0.17334691409197822
0.6200000000000001,-0.88,0.15147219733935952
0.6400000000000001,-0.88,0.12720867354959436
0.6600000000000001,-0.88,0.1009389929871739
0.6799999999999999,-0.88,0.073077444207314
0.7,-0.88,0.04406342047795559
0.72,-0.88,0.014354490285448367
0.74,-0.88,-0.015580818793817314
0.76,-0.88,-0.04527040905317458
0.78,-0.88,-0.07424605791853164
0.8,-0.88,-0.1020508020980683
0.8200000000000001,-0.88,-0.1282461441663242
0.8400000000000001,-0.88,-0.15241896793054416
0.8600000000000001,-0.88,-0.17418805351982136
0.8800000000000001,-0.88,-0.19321008945019147
0.9000000000000001,-0.88,-0.20918508685181905
0.9199999999999999,-0.88,-0.22186111047267953
0.94,-0.88,-0.23103825184798243
0.96,-0.88,-0.2365717819760811
0.98,-0.88,-0.23837443378128467
1.0,-0.88,-0.236417778367773

-1.0,-0.86,-0.2845126743236684
-0.98,-0.86,-0.26758688608088615
-0.96,-0.86,-0.2464410927959509
-0.94,-0.86,-0.2214087762608503
-0.92,-0.86,-0.19288471106092417
-0.9,-0.86,-0.1613187387438261
-0.88,-0.86,-0.12720867354959442
-0.86,-0.86,-0.0910924515827074
-0.84,-0.86,-0.05353964723836817
-0.8200000000000001,-0.86,-0.015142490674044839
-0.8,-0.86,0.023493472013893638
-0.78,-0.86,0.06175892861385312
-0.76,-0.86,0.09905041001657652
-0.74,-0.86,0.13477980728349173
-0.72,-0.86,0.16838364647599185
-0.7,-0.86,0.19933197497605087
-0.6799999999999999,-0.86,0.2271367191555877
-0.6599999999999999,-0.86,0.2513593815891417
-0.64,-0.86,0.27161795642021835
-0.62,-0.86,0.287592953821846
-0.6,-0.86,0.2990324385419998
-0.5800000000000001,-0.86,0.3057560030730259
-0.56,-0.86,0.30765761278580767
-0.54,-0.86,0.3047072781592081
-0.52,-0.86,0.2969515277327329
-0.5,-0.86,0.2845126743236684
-0.48,-0.86,0.26758688608088627
-0.45999999999999996,-0.86,0.24644109279595086
-0.43999999999999995,-0.86,0.22140877626085034
-0.42000000000000004,-0.86,0.19288471106092422
-0.4,-0.86,0.16131873874382616
-0.38,-0.86,0.12720867354959445
-0.36,-0.86,0.09109245158270737
-0.33999999999999997,-0.86,0.053539647238368106
-0.31999999999999995,-0.86,0.01514249067404479
-0.29999999999999993,-0.86,-0.023493472013893707
-0.28,-0.86,-0.061758928613853174
-0.26,-0.86,-0.09905041001657663
-0.24,-0.86,-0.13477980728349168
-0.21999999999999997,-0.86,-0.16838364647599185
-0.19999999999999996,-0.86,-0.19933197497605087
-0.17999999999999994,-0.86,-0.22713671915558764
-0.16000000000000003,-0.86,-0.2513593815891417
-0.14,-0.86,-0.27161795642021846
-0.12,-0.86,-0.2875929538218461
-0.09999999999999998,-0.86,-0.2990324385419998
-0.07999999999999996,-0.86,-0.3057560030730259
-0.05999999999999994,-0.86,-0.30765761278580767
-0.040000000000000036,-0.86,-0.30470727815920823
-0.020000000000000018,-0.86,-0.29695152773273303
0.0,-0.86,-0.2845126743236685
0.020000000000000018,-0.86,-0.26758688608088627
0.040000000000000036,-0.86,-0.24644109279595083
0.06000000000000005,-0.86,-0.22140877626085034
0.08000000000000007,-0.86,-0.19288471106092417
0.10000000000000009,-0.86,-0.16131873874382607
0.1200000000000001,-0.86,-0.12720867354959436
0.14000000000000012,-0.86,-0.09109245158270736
0.15999999999999992,-0.86,-0.05353964723836813
0.17999999999999994,-0.86,-0.015142490674044808
0.19999999999999996,-0.86,0.02349347201389366
0.21999999999999997,-0.86,0.061758928613853147