TITLE = "Solution" 
VARIABLES = "x", "y", "sol" 
ZONE STRANDID=1, SOLUTIONTIME= 0.059999999999999984, I= 101, J =101, DATAPACKING=POINT 
-1.0,-1.0,0.11232125073638931
-0.98,-1.0,0.06853731296903688
-0.96,-1.0,0.023672500833956518
-0.94,-1.0,-0.02156564078054191
-0.92,-1.0,-0.06646367935724179
-0.9,-1.0,-0.11031354600700037
-0.88,-1.0,-0.15242370213811032
-0.86,-1.0,-0.19213004543299614
-0.84,-1.0,-0.22880638313847781
-0.8200000000000001,-1.0,-0.2618743074995576
-0.8,-1.0,-0.2908123175952408
-0.78,-1.0,-0.31516404371958917
-0.76,-1.0,-0.33454544460460567
-0.74,-1.0,-0.3486508639804459
-0.72,-1.0,-0.35725785095738394
-0.7,-1.0,-0.3602306682092282
-0.6799999999999999,-1.0,-0.3575224326320427
-0.6599999999999999,-1.0,-0.34917585471870083
-0.64,-1.0,-0.3353225649889001
-0.62,-1.0,-0.3161810380972336
-0.6,-1.0,-0.2920531473573768
-0.5800000000000001,-1.0,-0.2633194040196006
-0.56,-1.0,-0.23043295638104785
-0.54,-1.0,-0.1939124433663902
-0.52,-1.0,-0.15433381528216575
-0.5,-1.0,-0.11232125073638916
-0.48,-1.0,-0.0685373129690368
-0.45999999999999996,-1.0,-0.02367250083395647
-0.43999999999999995,-1.0,0.0215656407805419
-0.42000000000000004,-1.0,0.06646367935724176
-0.4,-1.0,0.11031354600700034
-0.38,-1.0,0.15242370213811027
-0.36,-1.0,0.1921300454329961
-0.33999999999999997,-1.0,0.2288063831384777
-0.31999999999999995,-1.0,0.26187430749955753
-0.29999999999999993,-1.0,0.29081231759524073
-0.28,-1.0,0.3151640437195891
-0.26,-1.0,0.3345454446046057
-0.24,-1.0,0.3486508639804459
-0.21999999999999997,-1.0,0.3572578509573838
-0.19999999999999996,-1.0,0.3602306682092282
-0.17999999999999994,-1.0,0.35752243263204264
-0.16000000000000003,-1.0,0.34917585471870083
-0.14,-1.0,0.33532256498890006
-0.12,-1.0,0.3161810380972336
-0.09999999999999998,-1.0,0.2920531473573768
-0.07999999999999996,-1.0,0.2633194040196006
-0.05999999999999994,-1.0,0.2304329563810478
-0.040000000000000036,-1.0,0.1939124433663901
-0.020000000000000018,-1.0,0.15433381528216567
0.0,-1.0,0.11232125073638904
0.020000000000000018,-1.0,0.06853731296903678
0.040000000000000036,-1.0,0.023672500833956493
0.06000000000000005,-1.0,-0.02156564078054185
0.08000000000000007,-1.0,-0.0664636793572417
0.10000000000000009,-1.0,-0.1103135460070003
0.1200000000000001,-1.0,-0.15242370213811032
0.14000000000000012,-1.0,-0.1921300454329962
0.15999999999999992,-1.0,-0.22880638313847781
0.17999999999999994,-1.0,-0.2618743074995576
0.19999999999999996,-1.0,-0.29081231759524073
0.21999999999999997,-1.0,-0.3151640437195891
0.24,-1.0,-0.33454544460460567
0.26,-1.0,-0.34865086398044587
0.28,-1.0,-0.3572578509573838
0.30000000000000004,-1.0,-0.3602306682092282
0.32000000000000006,-1.0,-0.35752243263204264
0.3400000000000001,-1.0,-0.34917585471870083
0.3600000000000001,-1.0,-0.3353225649889001
0.3800000000000001,-1.0,-0.3161810380972336
0.40000000000000013,-1.0,-0.29205314735737675
0.41999999999999993,-1.0,-0.26331940401960036
0.43999999999999995,-1.0,-0.23043295638104774
0.45999999999999996,-1.0,-0.19391244336639013
0.48,-1.0,-0.15433381528216578
0.5,-1.0,-0.11232125073638924
0.52,-1.0,-0.06853731296903688
0.54,-1.0,-0.02367250083395655
0.56,-1.0,0.02156564078054181
0.5800000000000001,-1.0,0.06646367935724166
0.6000000000000001,-1.0,0.11031354600700029
0.6200000000000001,-1.0,0.15242370213811024
0.6400000000000001,-1.0,0.19213004543299614
0.6600000000000001,-1.0,0.22880638313847776
0.6799999999999999,-1.0,0.26187430749955753
0.7,-1.0,0.29081231759524073
0.72,-1.0,0.31516404371958906
0.74,-1.0,0.33454544460460556
0.76,-1.0,0.34865086398044587
0.78,-1.0,0.3572578509573838
0.8,-1.0,0.3602306682092282
0.8200000000000001,-1.0,0.35752243263204264
0.8400000000000001,-1.0,0.3491758547187009
0.8600000000000001,-1.0,0.3353225649889002
0.8800000000000001,-1.0,0.3161810380972336
0.9000000000000001,-1.0,0.29205314735737675
0.9199999999999999,-1.0,0.2633194040196005
0.94,-1.0,0.23043295638104783
0.96,-1.0,0.1939124433663902
0.98,-1.0,0.1543338152821659
1.0,-1.0,0.11232125073638932

-1.0,-0.98,0.06853731296903688
-0.98,-0.98,0.03865222442516304
-0.96,-0.98,0.008157567212384663
-0.94,-0.98,-0.02246573970842746
-0.92,-0.98,-0.052734748493655254
-0.9,-0.98,-0.08217209879292629
-0.88,-0.98,-0.11031354600700036
-0.86,-0.98,-0.1367152827024259
-0.84,-0.98,-0.16096093771988296
-0.8200000000000001,-0.98,-0.18266814259609407
-0.8,-0.98,-0.2014945617429056
-0.78,-0.98,-0.21714329128401472
-0.76,-0.98,-0.2293675414064602
-0.74,-0.98,-0.23797452838339817
-0.72,-0.98,-0.24282851488863733
-0.7,-0.98,-0.24385295065535914
-0.6799999999999999,-0.98,-0.24103167971955414
-0.6599999999999999,-0.98,-0.2344091952092256
-0.64,-0.98,-0.22408993766118177
-0.62,-0.98,-0.21023664793138105
-0.6,-0.98,-0.19306780067441653
-0.5800000000000001,-0.98,-0.17285415886770278
-0.56,-0.98,-0.14991450371757592
-0.54,-0.98,-0.12461060728923923
-0.52,-0.98,-0.09734152714518265
-0.5,-0.98,-0.06853731296903681
-0.48,-0.98,-0.03865222442516297
-0.45999999999999996,-0.98,-0.008157567212384642
-0.43999999999999995,-0.98,0.022465739708427444
-0.42000000000000004,-0.98,0.05273474849365523
-0.4,-0.98,0.08217209879292627
-0.38,-0.98,0.11031354600700033
-0.36,-0.98,0.13671528270242583
-0.33999999999999997,-0.98,0.16096093771988293
-0.31999999999999995,-0.98,0.18266814259609399
-0.29999999999999993,-0.98,0.20149456174290553
-0.28,-0.98,0.21714329128401466
-0.26,-0.98,0.22936754140646023
-0.24,-0.98,0.23797452838339817
-0.21999999999999997,-0.98,0.24282851488863733
-0.19999999999999996,-0.98,0.24385295065535914
-0.17999999999999994,-0.98,0.24103167971955414
-0.16000000000000003,-0.98,0.23440919520922554
-0.14,-0.98,0.2240899376611818
-0.12,-0.98,0.21023664793138108
-0.09999999999999998,-0.98,0.19306780067441653
-0.07999999999999996,-0.98,0.17285415886770278
-0.05999999999999994,-0.98,0.14991450371757586
-0.040000000000000036,-0.98,0.12461060728923917
-0.020000000000000018,-0.98,0.09734152714518256
0.0,-0.98,0.06853731296903676
0.020000000000000018,-0.98,0.038652224425162966
0.040000000000000036,-0.98,0.008157567212384672
0.06000000000000005,-0.98,-0.022465739708427405
0.08000000000000007,-0.98,-0.052734748493655184
0.10000000000000009,-0.98,-0.08217209879292622
0.1200000000000001,-0.98,-0.11031354600700036
0.14000000000000012,-0.98,-0.13671528270242592
0.15999999999999992,-0.98,-0.16096093771988298
0.17999999999999994,-0.98,-0.182668142596094
0.19999999999999996,-0.98,-0.20149456174290556
0.21999999999999997,-0.98,-0.21714329128401466
0.24,-0.98,-0.22936754140646015
0.26,-0.98,-0.2379745283833981
0.28,-0.98,-0.24282851488863733
0.30000000000000004,-0.98,-0.24385295065535914
0.32000000000000006,-0.98,-0.24103167971955414
0.3400000000000001,-0.98,-0.23440919520922554
0.3600000000000001,-0.98,-0.2240899376611818
0.3800000000000001,-0.98,-0.21023664793138108
0.40000000000000013,-0.98,-0.19306780067441645
0.41999999999999993,-0.98,-0.1728541588677027
0.43999999999999995,-0.98,-0.1499145037175758
0.45999999999999996,-0.98,-0.12461060728923921
0.48,-0.98,-0.09734152714518268
0.5,-0.98,-0.06853731296903687
0.52,-0.98,-0.03865222442516302
0.54,-0.98,-0.008157567212384703
0.56,-0.98,0.02246573970842738
0.5800000000000001,-0.98,0.05273474849365518
0.6000000000000001,-0.98,0.08217209879292622
0.6200000000000001,-0.98,0.11031354600700033
0.6400000000000001,-0.98,0.13671528270242586
0.6600000000000001,-0.98,0.16096093771988296
0.6799999999999999,-0.98,0.18266814259609404
0.7,-0.98,0.20149456174290553
0.72,-0.98,0.2171432912840146
0.74,-0.98,0.22936754140646015
0.76,-0.98,0.2379745283833981
0.78,-0.98,0.24282851488863733
0.8,-0.98,0.24385295065535914
0.8200000000000001,-0.98,0.24103167971955416
0.8400000000000001,-0.98,0.23440919520922562
0.8600000000000001,-0.98,0.2240899376611818
0.8800000000000001,-0.98,0.21023664793138108
0.9000000000000001,-0.98,0.19306780067441653
0.9199999999999999,-0.98,0.1728541588677027
0.94,-0.98,0.14991450371757586
0.96,-0.98,0.12461060728923928
0.98,-0.98,0.09734152714518277
1.0,-0.98,0.0685373129690369

-1.0,-0.96,0.023672500833956514
-0.98,-0.96,0.008157567212384663
-0.96,-0.96,-0.007486016117220942
-0.94,-0.96,-0.023011540500728688
-0.92,-0.96,-0.038174159144111944
-0.9,-0.96,-0.0527347484936552
-0.88,-0.96,-0.06646367935724173
-0.86,-0.96,-0.07914443829388704
-0.84,-0.96,-0.090577042160042
-0.8200000000000001,-0.96,-0.10058119196323081
-0.8,-0.96,-0.10899911628486778
-0.78,-0.96,-0.11569805942977647
-0.76,-0.96,-0.120572375062807
-0.74,-0.96,-0.12354519231465144
-0.72,-0.96,-0.12456962808137326
-0.7,-0.96,-0.12362952639896302
-0.6799999999999999,-0.96,-0.12073971323254186
-0.6599999999999999,-0.96,-0.11594576266203492
-0.64,-0.96,-0.10932327815170634
-0.62,-0.96,-0.10097670023836453
-0.6,-0.96,-0.09103765944170684
-0.5800000000000001,-0.96,-0.07966290037239177
-0.56,-0.96,-0.06703180977589404
-0.54,-0.96,-0.05334358749636828
-0.52,-0.96,-0.03881410497611022
-0.5,-0.96,-0.023672500833956462
-0.48,-0.96,-0.008157567212384637
-0.45999999999999996,-0.96,0.0074860161172209385
-0.43999999999999995,-0.96,0.023011540500728667
-0.42000000000000004,-0.96,0.038174159144111916
-0.4,-0.96,0.052734748493655184
-0.38,-0.96,0.0664636793572417
-0.36,-0.96,0.07914443829388701
-0.33999999999999997,-0.96,0.09057704216004196
-0.31999999999999995,-0.96,0.10058119196323079
-0.29999999999999993,-0.96,0.10899911628486776
-0.28,-0.96,0.11569805942977646
-0.26,-0.96,0.12057237506280699
-0.24,-0.96,0.12354519231465144
-0.21999999999999997,-0.96,0.12456962808137327
-0.19999999999999996,-0.96,0.12362952639896302
-0.17999999999999994,-0.96,0.12073971323254185
-0.16000000000000003,-0.96,0.1159457626620349
-0.14,-0.96,0.10932327815170637
-0.12,-0.96,0.10097670023836454
-0.09999999999999998,-0.96,0.09103765944170686
-0.07999999999999996,-0.96,0.07966290037239174
-0.05999999999999994,-0.96,0.06703180977589403
-0.040000000000000036,-0.96,0.053343587496368236
-0.020000000000000018,-0.96,0.03881410497611017
0.0,-0.96,0.023672500833956434
0.020000000000000018,-0.96,0.008157567212384656
0.040000000000000036,-0.96,-0.007486016117220911
0.06000000000000005,-0.96,-0.023011540500728643
0.08000000000000007,-0.96,-0.03817415914411189
0.10000000000000009,-0.96,-0.052734748493655184
0.1200000000000001,-0.96,-0.06646367935724173
0.14000000000000012,-0.96,-0.07914443829388706
0.15999999999999992,-0.96,-0.090577042160042
0.17999999999999994,-0.96,-0.10058119196323081
0.19999999999999996,-0.96,-0.10899911628486773
0.21999999999999997,-0.96,-0.11569805942977641
0.24,-0.96,-0.12057237506280698
0.26,-0.96,-0.12354519231465144
0.28,-0.96,-0.12456962808137328
0.30000000000000004,-0.96,-0.12362952639896302
0.32000000000000006,-0.96,-0.12073971323254185
0.3400000000000001,-0.96,-0.1159457626620349
0.3600000000000001,-0.96,-0.10932327815170637
0.3800000000000001,-0.96,-0.10097670023836451
0.40000000000000013,-0.96,-0.09103765944170682
0.41999999999999993,-0.96,-0.0796629003723917
0.43999999999999995,-0.96,-0.06703180977589401
0.45999999999999996,-0.96,-0.05334358749636828
0.48,-0.96,-0.03881410497611026
0.5,-0.96,-0.023672500833956493
0.52,-0.96,-0.008157567212384673
0.54,-0.96,0.007486016117220906
0.56,-0.96,0.02301154050072864
0.5800000000000001,-0.96,0.03817415914411189
0.6000000000000001,-0.96,0.05273474849365517
0.6200000000000001,-0.96,0.06646367935724172
0.6400000000000001,-0.96,0.07914443829388704
0.6600000000000001,-0.96,0.09057704216004199
0.6799999999999999,-0.96,0.10058119196323079
0.7,-0.96,0.10899911628486776
0.72,-0.96,0.11569805942977643
0.74,-0.96,0.12057237506280696
0.76,-0.96,0.12354519231465144
0.78,-0.96,0.12456962808137328
0.8,-0.96,0.12362952639896302
0.8200000000000001,-0.96,0.12073971323254187
0.8400000000000001,-0.96,0.11594576266203493
0.8600000000000001,-0.96,0.10932327815170637
0.8800000000000001,-0.96,0.10097670023836455
0.9000000000000001,-0.96,0.09103765944170683
0.9199999999999999,-0.96,0.07966290037239171
0.94,-0.96,0.06703180977589406
0.96,-0.96,0.05334358749636834
0.98,-0.96,0.03881410497611029
1.0,-0.96,0.023672500833956514

-1.0,-0.94,-0.02156564078054191
-0.98,-0.94,-0.022465739708427454
-0.96,-0.94,-0.023011540500728688
-0.94,-0.94,-0.023194435552905422
-0.92,-0.94,-0.02301154050072863
-0.9,-0.94,-0.022465739708427357
-0.88,-0.94,-0.021565640780541802
-0.86,-0.94,-0.02032543881485776
-0.84,-0.94,-0.018764692537234826
-0.8200000000000001,-0.94,-0.01690801584881572
-0.8,-0.94,-0.014784689650101657
-0.78,-0.94,-0.012428200063660015
-0.76,-0.94,-0.009875710337967601
-0.74,-0.94,-0.0071674747607820555
-0.72,-0.94,-0.0043462038249770935
-0.7,-0.94,-0.00145639065855592
-0.6799999999999999,-0.94,0.0014563906585562808
-0.6599999999999999,-0.94,0.00434620382497744
-0.64,-0.94,0.0071674747607823955
-0.62,-0.94,0.009875710337967941
-0.6,-0.94,0.012428200063660293
-0.5800000000000001,-0.94,0.014784689650101913
-0.56,-0.94,0.01690801584881589
-0.54,-0.94,0.018764692537235
-0.52,-0.94,0.020325438814857908
-0.5,-0.94,0.021565640780541923
-0.48,-0.94,0.02246573970842744
-0.45999999999999996,-0.94,0.023011540500728657
-0.43999999999999995,-0.94,0.02319443555290539
-0.42000000000000004,-0.94,0.02301154050072862
-0.4,-0.94,0.022465739708427357
-0.38,-0.94,0.02156564078054179
-0.36,-0.94,0.020325438814857752
-0.33999999999999997,-0.94,0.01876469253723483
-0.31999999999999995,-0.94,0.016908015848815714
-0.29999999999999993,-0.94,0.014784689650101643
-0.28,-0.94,0.012428200063660015
-0.26,-0.94,0.009875710337967615
-0.24,-0.94,0.0071674747607820555
-0.21999999999999997,-0.94,0.00434620382497708
-0.19999999999999996,-0.94,0.00145639065855592
-0.17999999999999994,-0.94,-0.0014563906585562877
-0.16000000000000003,-0.94,-0.0043462038249774265
-0.14,-0.94,-0.007167474760782382
-0.12,-0.94,-0.009875710337967913
-0.09999999999999998,-0.94,-0.012428200063660307
-0.07999999999999996,-0.94,-0.014784689650101893
-0.05999999999999994,-0.94,-0.01690801584881592
-0.040000000000000036,-0.94,-0.01876469253723502
-0.020000000000000018,-0.94,-0.02032543881485793
0.0,-0.94,-0.021565640780541902
0.020000000000000018,-0.94,-0.0224657397084274
0.040000000000000036,-0.94,-0.023011540500728636
0.06000000000000005,-0.94,-0.02319443555290538
0.08000000000000007,-0.94,-0.02301154050072861
0.10000000000000009,-0.94,-0.02246573970842737
0.1200000000000001,-0.94,-0.02156564078054183
0.14000000000000012,-0.94,-0.02032543881485779
0.15999999999999992,-0.94,-0.018764692537234832
0.17999999999999994,-0.94,-0.016908015848815686
0.19999999999999996,-0.94,-0.014784689650101608
0.21999999999999997,-0.94,-0.012428200063659994
0.24,-0.94,-0.009875710337967608
0.26,-0.94,-0.00716747476078209
0.28,-0.94,-0.004346203824977107
0.30000000000000004,-0.94,-0.001456390658555927
0.32000000000000006,-0.94,0.0014563906585562877
0.3400000000000001,-0.94,0.0043462038249774265
0.3600000000000001,-0.94,0.0071674747607823885
0.3800000000000001,-0.94,0.009875710337967913
0.40000000000000013,-0.94,0.012428200063660327
0.41999999999999993,-0.94,0.01478468965010192
0.43999999999999995,-0.94,0.016908015848815905
0.45999999999999996,-0.94,0.018764692537234957
0.48,-0.94,0.020325438814857863
0.5,-0.94,0.021565640780541892
0.52,-0.94,0.022465739708427433
0.54,-0.94,0.023011540500728657
0.56,-0.94,0.02319443555290539
0.5800000000000001,-0.94,0.02301154050072862
0.6000000000000001,-0.94,0.022465739708427364
0.6200000000000001,-0.94,0.02156564078054182
0.6400000000000001,-0.94,0.02032543881485778
0.6600000000000001,-0.94,0.018764692537234832
0.6799999999999999,-0.94,0.016908015848815718
0.7,-0.94,0.014784689650101643
0.72,-0.94,0.012428200063660001
0.74,-0.94,0.009875710337967615
0.76,-0.94,0.007167474760782076
0.78,-0.94,0.004346203824977107
0.8,-0.94,0.001456390658555927
0.8200000000000001,-0.94,-0.0014563906585562739
0.8400000000000001,-0.94,-0.0043462038249774265
0.8600000000000001,-0.94,-0.0071674747607823955
0.8800000000000001,-0.94,-0.009875710337967927
0.9000000000000001,-0.94,-0.012428200063660327
0.9199999999999999,-0.94,-0.01478468965010192
0.94,-0.94,-0.016908015848815884
0.96,-0.94,-0.018764692537234937
0.98,-0.94,-0.02032543881485787
1.0,-0.94,-0.02156564078054191

-1.0,-0.92,-0.06646367935724179
-0.98,-0.92,-0.052734748493655254
-0.96,-0.92,-0.038174159144111944
-0.94,-0.92,-0.023011540500728633
-0.92,-0.92,-0.007486016117220842
-0.9,-0.92,0.008157567212384777
-0.88,-0.92,0.023672500833956635
-0.86,-0.92,0.038814104976110396
-0.84,-0.92,0.053343587496368465
-0.8200000000000001,-0.92,0.06703180977589429
-0.8,-0.92,0.07966290037239204
-0.78,-0.92,0.09103765944170719
-0.76,-0.92,0.1009767002383649
-0.74,-0.92,0.10932327815170668
-0.72,-0.92,0.11594576266203525
-0.7,-0.92,0.1207397132325422
-0.6799999999999999,-0.92,0.12362952639896335
-0.6599999999999999,-0.92,0.12456962808137353
-0.64,-0.92,0.12354519231465166
-0.62,-0.92,0.12057237506280716
-0.6,-0.92,0.11569805942977665
-0.5800000000000001,-0.92,0.10899911628486786
-0.56,-0.92,0.1005811919632309
-0.54,-0.92,0.09057704216004206
-0.52,-0.92,0.07914443829388709
-0.5,-0.92,0.06646367935724175
-0.48,-0.92,0.05273474849365519
-0.45999999999999996,-0.92,0.03817415914411188
-0.43999999999999995,-0.92,0.0230115405007286
-0.42000000000000004,-0.92,0.007486016117220834
-0.4,-0.92,-0.00815756721238477
-0.38,-0.92,-0.023672500833956625
-0.36,-0.92,-0.038814104976110396
-0.33999999999999997,-0.92,-0.05334358749636845
-0.31999999999999995,-0.92,-0.06703180977589429
-0.29999999999999993,-0.92,-0.07966290037239204
-0.28,-0.92,-0.09103765944170714
-0.26,-0.92,-0.10097670023836489
-0.24,-0.92,-0.10932327815170673
-0.21999999999999997,-0.92,-0.11594576266203525
-0.19999999999999996,-0.92,-0.1207397132325422
-0.17999999999999994,-0.92,-0.12362952639896331
-0.16000000000000003,-0.92,-0.1245696280813735
-0.14,-0.92,-0.12354519231465165
-0.12,-0.92,-0.12057237506280719
-0.09999999999999998,-0.92,-0.11569805942977662
-0.07999999999999996,-0.92,-0.10899911628486789
-0.05999999999999994,-0.92,-0.1005811919632309
-0.040000000000000036,-0.92,-0.09057704216004206
-0.020000000000000018,-0.92,-0.07914443829388706
0.0,-0.92,-0.0664636793572417
0.020000000000000018,-0.92,-0.05273474849365514
0.040000000000000036,-0.92,-0.03817415914411186
0.06000000000000005,-0.92,-0.023011540500728598
0.08000000000000007,-0.92,-0.007486016117220851
0.10000000000000009,-0.92,0.008157567212384743
0.1200000000000001,-0.92,0.023672500833956577
0.14000000000000012,-0.92,0.03881410497611038
0.15999999999999992,-0.92,0.05334358749636851
0.17999999999999994,-0.92,0.06703180977589435
0.19999999999999996,-0.92,0.07966290037239208
0.21999999999999997,-0.92,0.09103765944170718
0.24,-0.92,0.10097670023836486
0.26,-0.92,0.10932327815170664
0.28,-0.92,0.11594576266203524
0.30000000000000004,-0.92,0.12073971323254218
0.32000000000000006,-0.92,0.12362952639896331
0.3400000000000001,-0.92,0.1245696280813735
0.3600000000000001,-0.92,0.12354519231465165
0.3800000000000001,-0.92,0.12057237506280719
0.40000000000000013,-0.92,0.11569805942977662
0.41999999999999993,-0.92,0.10899911628486789
0.43999999999999995,-0.92,0.10058119196323084
0.45999999999999996,-0.92,0.09057704216004198
0.48,-0.92,0.07914443829388701
0.5,-0.92,0.06646367935724175
0.52,-0.92,0.05273474849365521
0.54,-0.92,0.038174159144111916
0.56,-0.92,0.02301154050072863
0.5800000000000001,-0.92,0.00748601611722087
0.6000000000000001,-0.92,-0.008157567212384736
0.6200000000000001,-0.92,-0.02367250083395658
0.6400000000000001,-0.92,-0.03881410497611037
0.6600000000000001,-0.92,-0.05334358749636845
0.6799999999999999,-0.92,-0.06703180977589429
0.7,-0.92,-0.07966290037239204
0.72,-0.92,-0.09103765944170714
0.74,-0.92,-0.10097670023836486
0.76,-0.92,-0.10932327815170667
0.78,-0.92,-0.11594576266203521
0.8,-0.92,-0.1207397132325422
0.8200000000000001,-0.92,-0.12362952639896335
0.8400000000000001,-0.92,-0.12456962808137353
0.8600000000000001,-0.92,-0.12354519231465166
0.8800000000000001,-0.92,-0.12057237506280719
0.9000000000000001,-0.92,-0.11569805942977666
0.9199999999999999,-0.92,-0.10899911628486789
0.94,-0.92,-0.10058119196323084
0.96,-0.92,-0.090577042160042
0.98,-0.92,-0.07914443829388706
1.0,-0.92,-0.06646367935724179

-1.0,-0.9,-0.11031354600700036
-0.98,-0.9,-0.08217209879292629
-0.96,-0.9,-0.05273474849365521
-0.94,-0.9,-0.022465739708427357
-0.92,-0.9,0.008157567212384776
-0.9,-0.9,0.038652224425163154
-0.88,-0.9,0.06853731296903698
-0.86,-0.9,0.09734152714518285
-0.84,-0.9,0.12461060728923942
-0.8200000000000001,-0.9,0.14991450371757614
-0.8,-0.9,0.17285415886770306
-0.78,-0.9,0.19306780067441687
-0.76,-0.9,0.21023664793138136
-0.74,-0.9,0.22408993766118213
-0.72,-0.9,0.23440919520922587
-0.7,-0.9,0.24103167971955441
-0.6799999999999999,-0.9,0.24385295065535934
-0.6599999999999999,-0.9,0.24282851488863738
-0.64,-0.9,0.23797452838339817
-0.62,-0.9,0.22936754140646023
-0.6,-0.9,0.2171432912840146
-0.5800000000000001,-0.9,0.20149456174290548
-0.56,-0.9,0.18266814259609396
-0.54,-0.9,0.1609609377198829
-0.52,-0.9,0.13671528270242583
-0.5,-0.9,0.11031354600700029
-0.48,-0.9,0.0821720987929262
-0.45999999999999996,-0.9,0.052734748493655136
-0.43999999999999995,-0.9,0.022465739708427315
-0.42000000000000004,-0.9,-0.00815756721238478
-0.4,-0.9,-0.038652224425163126
-0.38,-0.9,-0.06853731296903698
-0.36,-0.9,-0.09734152714518282
-0.33999999999999997,-0.9,-0.12461060728923942
-0.31999999999999995,-0.9,-0.14991450371757614
-0.29999999999999993,-0.9,-0.172854158867703
-0.28,-0.9,-0.19306780067441687
-0.26,-0.9,-0.2102366479313814
-0.24,-0.9,-0.22408993766118213
-0.21999999999999997,-0.9,-0.23440919520922587
-0.19999999999999996,-0.9,-0.24103167971955436
-0.17999999999999994,-0.9,-0.2438529506553593
-0.16000000000000003,-0.9,-0.24282851488863738
-0.14,-0.9,-0.2379745283833981
-0.12,-0.9,-0.2293675414064602
-0.09999999999999998,-0.9,-0.21714329128401466
-0.07999999999999996,-0.9,-0.20149456174290553
-0.05999999999999994,-0.9,-0.1826681425960939
-0.040000000000000036,-0.9,-0.1609609377198829
-0.020000000000000018,-0.9,-0.13671528270242575
0.0,-0.9,-0.1103135460070002
0.020000000000000018,-0.9,-0.08217209879292613
0.040000000000000036,-0.9,-0.0527347484936551
0.06000000000000005,-0.9,-0.022465739708427333
0.08000000000000007,-0.9,0.008157567212384741
0.10000000000000009,-0.9,0.038652224425163084
0.1200000000000001,-0.9,0.06853731296903692
0.14000000000000012,-0.9,0.09734152714518285
0.15999999999999992,-0.9,0.12461060728923948
0.17999999999999994,-0.9,0.14991450371757617
0.19999999999999996,-0.9,0.17285415886770306
0.21999999999999997,-0.9,0.19306780067441687
0.24,-0.9,0.2102366479313813
0.26,-0.9,0.22408993766118201
0.28,-0.9,0.23440919520922587
0.30000000000000004,-0.9,0.24103167971955436
0.32000000000000006,-0.9,0.2438529506553593
0.3400000000000001,-0.9,0.24282851488863738
0.3600000000000001,-0.9,0.23797452838339817
0.3800000000000001,-0.9,0.22936754140646026
0.40000000000000013,-0.9,0.21714329128401466
0.41999999999999993,-0.9,0.20149456174290545
0.43999999999999995,-0.9,0.18266814259609382
0.45999999999999996,-0.9,0.16096093771988276
0.48,-0.9,0.13671528270242578
0.5,-0.9,0.11031354600700032
0.52,-0.9,0.08217209879292624
0.54,-0.9,0.05273474849365518
0.56,-0.9,0.022465739708427388
0.5800000000000001,-0.9,-0.008157567212384724
0.6000000000000001,-0.9,-0.038652224425163056
0.6200000000000001,-0.9,-0.0685373129690369
0.6400000000000001,-0.9,-0.0973415271451828
0.6600000000000001,-0.9,-0.12461060728923942
0.6799999999999999,-0.9,-0.14991450371757614
0.7,-0.9,-0.172854158867703
0.72,-0.9,-0.1930678006744168
0.74,-0.9,-0.21023664793138142
0.76,-0.9,-0.22408993766118201
0.78,-0.9,-0.23440919520922587
0.8,-0.9,-0.24103167971955444
0.8200000000000001,-0.9,-0.24385295065535934
0.8400000000000001,-0.9,-0.24282851488863744
0.8600000000000001,-0.9,-0.23797452838339817
0.8800000000000001,-0.9,-0.22936754140646026
0.9000000000000001,-0.9,-0.21714329128401466
0.9199999999999999,-0.9,-0.2014945617429055
0.94,-0.9,-0.18266814259609385
0.96,-0.9,-0.16096093771988282
0.98,-0.9,-0.13671528270242583
1.0,-0.9,-0.11031354600700038

-1.0,-0.88,-0.15242370213811032
-0.98,-0.88,-0.11031354600700037
-0.96,-0.88,-0.06646367935724175
-0.94,-0.88,-0.021565640780541802
-0.92,-0.88,0.023672500833956632
-0.9,-0.88,0.06853731296903699
-0.88,-0.88,0.11232125073638935
-0.86,-0.88,0.15433381528216594
-0.84,-0.88,0.19391244336639032
-0.8200000000000001,-0.88,0.23043295638104802
-0.8,-0.88,0.2633194040196009
-0.78,-0.88,0.29205314735737714
-0.76,-0.88,0.31618103809723397
-0.74,-0.88,0.3353225649889004
-0.72,-0.88,0.3491758547187011
-0.7,-0.88,0.3575224326320429
-0.6799999999999999,-0.88,0.36023066820922833
-0.6599999999999999,-0.88,0.35725785095738377
-0.64,-0.88,0.3486508639804458
-0.62,-0.88,0.33454544460460556
-0.6,-0.88,0.31516404371958895
-0.5800000000000001,-0.88,0.29081231759524057
-0.56,-0.88,0.2618743074995574
-0.54,-0.88,0.22880638313847765
-0.52,-0.88,0.19213004543299603
-0.5,-0.88,0.15242370213811024
-0.48,-0.88,0.11031354600700025
-0.45999999999999996,-0.88,0.06646367935724161
-0.43999999999999995,-0.88,0.021565640780541753
-0.42000000000000004,-0.88,-0.023672500833956625
-0.4,-0.88,-0.06853731296903695
-0.38,-0.88,-0.1123212507363893
-0.36,-0.88,-0.1543338152821659
-0.33999999999999997,-0.88,-0.19391244336639035
-0.31999999999999995,-0.88,-0.23043295638104805
-0.29999999999999993,-0.88,-0.26331940401960086
-0.28,-0.88,-0.2920531473573771
-0.26,-0.88,-0.3161810380972339
-0.24,-0.88,-0.3353225649889004
-0.21999999999999997,-0.88,-0.34917585471870105
-0.19999999999999996,-0.88,-0.357522432632043
-0.17999999999999994,-0.88,-0.3602306682092283
-0.16000000000000003,-0.88,-0.3572578509573837
-0.14,-0.88,-0.34865086398044576
-0.12,-0.88,-0.3345454446046055
-0.09999999999999998,-0.88,-0.31516404371958906
-0.07999999999999996,-0.88,-0.29081231759524057
-0.05999999999999994,-0.88,-0.2618743074995574
-0.040000000000000036,-0.88,-0.2288063831384776
-0.020000000000000018,-0.88,-0.19213004543299594
0.0,-0.88,-0.1524237021381101
0.020000000000000018,-0.88,-0.11031354600700012
0.040000000000000036,-0.88,-0.06646367935724161
0.06000000000000005,-0.88,-0.021565640780541788
0.08000000000000007,-0.88,0.023672500833956577
0.10000000000000009,-0.88,0.06853731296903688
0.1200000000000001,-0.88,0.11232125073638927
0.14000000000000012,-0.88,0.15433381528216594
0.15999999999999992,-0.88,0.1939124433663904
0.17999999999999994,-0.88,0.23043295638104813
0.19999999999999996,-0.88,0.2633194040196009
0.21999999999999997,-0.88,0.29205314735737703
0.24,-0.88,0.31618103809723386
0.26,-0.88,0.33532256498890034
0.28,-0.88,0.34917585471870105
0.30000000000000004,-0.88,0.3575224326320429
0.32000000000000006,-0.88,0.3602306682092283
0.3400000000000001,-0.88,0.35725785095738377
0.3600000000000001,-0.88,0.34865086398044587
0.3800000000000001,-0.88,0.33454544460460556
0.40000000000000013,-0.88,0.315164043719589
0.41999999999999993,-0.88,0.2908123175952405
0.43999999999999995,-0.88,0.26187430749955726
0.45999999999999996,-0.88,0.22880638313847756
0.48,-0.88,0.19213004543299597
0.5,-0.88,0.15242370213811024
0.52,-0.88,0.11031354600700029
0.54,-0.88,0.06646367935724172
0.56,-0.88,0.021565640780541837
0.5800000000000001,-0.88,-0.023672500833956535
0.6000000000000001,-0.88,-0.06853731296903685
0.6200000000000001,-0.88,-0.11232125073638924
0.6400000000000001,-0.88,-0.15433381528216586
0.6600000000000001,-0.88,-0.19391244336639035
0.6799999999999999,-0.88,-0.23043295638104805
0.7,-0.88,-0.2633194040196008
0.72,-0.88,-0.29205314735737714
0.74,-0.88,-0.31618103809723386
0.76,-0.88,-0.3353225649889004
0.78,-0.88,-0.3491758547187011
0.8,-0.88,-0.3575224326320429
0.8200000000000001,-0.88,-0.36023066820922833
0.8400000000000001,-0.88,-0.35725785095738377
0.8600000000000001,-0.88,-0.34865086398044587
0.8800000000000001,-0.88,-0.3345454446046056
0.9000000000000001,-0.88,-0.31516404371958906
0.9199999999999999,-0.88,-0.2908123175952405
0.94,-0.88,-0.2618743074995573
0.96,-0.88,-0.22880638313847756
0.98,-0.88,-0.19213004543299605
1.0,-0.88,-0.15242370213811032

-1.0,-0.86,-0.19213004543299614
-0.98,-0.86,-0.1367152827024259
-0.96,-0.86,-0.07914443829388704
-0.94,-0.86,-0.020325438814857755
-0.92,-0.86,0.03881410497611041
-0.9,-0.86,0.09734152714518284
-0.88,-0.86,0.15433381528216594
-0.86,-0.86,0.20889216695759677
-0.84,-0.86,0.26015616437397443
-0.8200000000000001,-0.86,0.307317343668415
-0.8,-0.86,0.34963194487072213
-0.78,-0.86,0.3864326414424179
-0.76,-0.86,0.4171390644148961
-0.74,-0.86,0.44126695515475284
-0.72,-0.86,0.45843580241171733
-0.7,-0.86,0.468374843208375
-0.6799999999999999,-0.86,0.47092733293406724
-0.6599999999999999,-0.86,0.46605301730103665
-0.64,-0.86,0.4538287671785911
-0.62,-0.86,0.4344473662935745
-0.6,-0.86,0.40821447091583135
-0.5800000000000001,-0.86,0.3755437894762408
-0.56,-0.86,0.3369505581376243
-0.54,-0.86,0.2930434152126705
-0.52,-0.86,0.244514802574162
-0.5,-0.86,0.192130045432996
-0.48,-0.86,0.13671528270242567
-0.45999999999999996,-0.86,0.0791444382938869
-0.43999999999999995,-0.86,0.02032543881485771
-0.42000000000000004,-0.86,-0.03881410497611039
-0.4,-0.86,-0.0973415271451828
-0.38,-0.86,-0.15433381528216586
-0.36,-0.86,-0.20889216695759677
-0.33999999999999997,-0.86,-0.2601561643739745
-0.31999999999999995,-0.86,-0.30731734366841496
-0.29999999999999993,-0.86,-0.349631944870722
-0.28,-0.86,-0.3864326414424178
-0.26,-0.86,-0.41713906441489607
-0.24,-0.86,-0.44126695515475284
-0.21999999999999997,-0.86,-0.4584358024117175
-0.19999999999999996,-0.86,-0.46837484320837497
-0.17999999999999994,-0.86,-0.47092733293406724
-0.16000000000000003,-0.86,-0.46605301730103654
-0.14,-0.86,-0.45382876717859105
-0.12,-0.86,-0.4344473662935746
-0.09999999999999998,-0.86,-0.4082144709158314
-0.07999999999999996,-0.86,-0.3755437894762409
-0.05999999999999994,-0.86,-0.3369505581376243
-0.040000000000000036,-0.86,-0.29304341521267047
-0.020000000000000018,-0.86,-0.2445148025741619
0.0,-0.86,-0.19213004543299583
0.020000000000000018,-0.86,-0.13671528270242558
0.040000000000000036,-0.86,-0.07914443829388688
0.06000000000000005,-0.86,-0.02032543881485775
0.08000000000000007,-0.86,0.03881410497611032
0.10000000000000009,-0.86,0.0973415271451827
0.1200000000000001,-0.86,0.15433381528216586
0.14000000000000012,-0.86,0.2088921669575968