TITLE = "Solution" 
VARIABLES = "x", "y", "sol" 
ZONE STRANDID=1, SOLUTIONTIME= 0.7000000000000004, I= 101, J =101, DATAPACKING=POINT 
-1.0,-1.0,0.6917862289934962
-0.98,-1.0,0.649496774795738
-0.96,-1.0,0.5969643684688848
-0.94,-1.0,0.5350174774420489
-0.92,-1.0,0.4646330411920035
-0.9,-1.0,0.3869210643240346
-0.88,-1.0,0.30310711113623545
-0.86,-1.0,0.21451297773840602
-0.84,-1.0,0.12253584653780046
-0.8200000000000001,-1.0,0.028626251837926976
-0.8,-1.0,-0.06573479595392477
-0.78,-1.0,-0.1590591667455193
-0.76,-1.0,-0.24987507946019663
-0.74,-1.0,-0.33675031290364965
-0.72,-1.0,-0.41831479274772554
-0.7,-1.0,-0.49328219842102516
-0.6799999999999999,-1.0,-0.560470249152723
-0.6599999999999999,-1.0,-0.6188193492465847
-0.64,-1.0,-0.6674092985380672
-0.62,-1.0,-0.7054738045006141
-0.6,-1.0,-0.7324125671365628
-0.5800000000000001,-1.0,-0.747800746066708
-0.56,-1.0,-0.7513956605168679
-0.54,-1.0,-0.7431406165386667
-0.52,-1.0,-0.7231658011069647
-0.5,-1.0,-0.6917862289934962
-0.48,-1.0,-0.6494967747957381
-0.45999999999999996,-1.0,-0.5969643684688849
-0.43999999999999995,-1.0,-0.5350174774420493
-0.42000000000000004,-1.0,-0.4646330411920036
-0.4,-1.0,-0.3869210643240348
-0.38,-1.0,-0.30310711113623545
-0.36,-1.0,-0.21451297773840605
-0.33999999999999997,-1.0,-0.12253584653780039
-0.31999999999999995,-1.0,-0.02862625183792691
-0.29999999999999993,-1.0,0.06573479595392483
-0.28,-1.0,0.1590591667455194
-0.26,-1.0,0.24987507946019671
-0.24,-1.0,0.3367503129036497
-0.21999999999999997,-1.0,0.4183147927477257
-0.19999999999999996,-1.0,0.4932821984210252
-0.17999999999999994,-1.0,0.5604702491527233
-0.16000000000000003,-1.0,0.6188193492465848
-0.14,-1.0,0.667409298538067
-0.12,-1.0,0.7054738045006141
-0.09999999999999998,-1.0,0.7324125671365626
-0.07999999999999996,-1.0,0.7478007460667079
-0.05999999999999994,-1.0,0.751395660516868
-0.040000000000000036,-1.0,0.7431406165386666
-0.020000000000000018,-1.0,0.7231658011069647
0.0,-1.0,0.6917862289934961
0.020000000000000018,-1.0,0.649496774795738
0.040000000000000036,-1.0,0.5969643684688849
0.06000000000000005,-1.0,0.5350174774420492
0.08000000000000007,-1.0,0.46463304119200355
0.10000000000000009,-1.0,0.3869210643240347
0.1200000000000001,-1.0,0.3031071111362354
0.14000000000000012,-1.0,0.21451297773840594
0.15999999999999992,-1.0,0.12253584653780035
0.17999999999999994,-1.0,0.02862625183792685
0.19999999999999996,-1.0,-0.06573479595392485
0.21999999999999997,-1.0,-0.1590591667455194
0.24,-1.0,-0.24987507946019674
0.26,-1.0,-0.3367503129036496
0.28,-1.0,-0.4183147927477256
0.30000000000000004,-1.0,-0.4932821984210252
0.32000000000000006,-1.0,-0.5604702491527233
0.3400000000000001,-1.0,-0.6188193492465849
0.3600000000000001,-1.0,-0.6674092985380669
0.3800000000000001,-1.0,-0.7054738045006139
0.40000000000000013,-1.0,-0.7324125671365628
0.41999999999999993,-1.0,-0.7478007460667078
0.43999999999999995,-1.0,-0.751395660516868
0.45999999999999996,-1.0,-0.7431406165386665
0.48,-1.0,-0.7231658011069646
0.5,-1.0,-0.691786228993496
0.52,-1.0,-0.649496774795738
0.54,-1.0,-0.5969643684688847
0.56,-1.0,-0.535017477442049
0.5800000000000001,-1.0,-0.46463304119200355
0.6000000000000001,-1.0,-0.38692106432403456
0.6200000000000001,-1.0,-0.3031071111362352
0.6400000000000001,-1.0,-0.214512977738406
0.6600000000000001,-1.0,-0.12253584653780035
0.6799999999999999,-1.0,-0.028626251837926824
0.7,-1.0,0.06573479595392484
0.72,-1.0,0.15905916674551945
0.74,-1.0,0.24987507946019685
0.76,-1.0,0.3367503129036496
0.78,-1.0,0.4183147927477256
0.8,-1.0,0.4932821984210251
0.8200000000000001,-1.0,0.5604702491527233
0.8400000000000001,-1.0,0.6188193492465849
0.8600000000000001,-1.0,0.6674092985380672
0.8800000000000001,-1.0,0.705473804500614
0.9000000000000001,-1.0,0.7324125671365629
0.9199999999999999,-1.0,0.7478007460667077
0.94,-1.0,0.7513956605168678
0.96,-1.0,0.7431406165386666
0.98,-1.0,0.7231658011069648
1.0,-1.0,0.6917862289934962

-1.0,-0.98,0.649496774795738
-0.98,-0.98,0.605989726680367
-0.96,-0.98,0.5529258585745302
-0.94,-0.98,0.4911420193770769
-0.92,-0.98,0.4216125771400255
-0.9,-0.98,0.3454340527023302
-0.88,-0.98,0.26380782690121807
-0.86,-0.98,0.17802119407871683
-0.84,-0.98,0.08942706068088738
-0.8200000000000001,-0.98,-0.0005773908850164582
-0.8,-0.98,-0.09057273665174691
-0.78,-0.98,-0.17913969625594925
-0.76,-0.98,-0.2648815158373279
-0.74,-0.98,-0.3464459956814038
-0.72,-0.98,-0.42254681521677756
-0.7,-0.98,-0.49198381905895056
-0.6799999999999999,-0.98,-0.5536619441776763
-0.6599999999999999,-0.98,-0.6066084896951065
-0.64,-0.98,-0.6499884569596978
-0.62,-0.98,-0.6831177179737506
-0.6,-0.98,-0.7054738045006134
-0.5800000000000001,-0.98,-0.7167041477008774
-0.56,-0.98,-0.7166316383535933
-0.54,-0.98,-0.7052574199744831
-0.52,-0.98,-0.682760870782014
-0.5,-0.98,-0.6494967747957381
-0.48,-0.98,-0.6059897266803669
-0.45999999999999996,-0.98,-0.5529258585745308
-0.43999999999999995,-0.98,-0.49114201937707724
-0.42000000000000004,-0.98,-0.42161257714002565
-0.4,-0.98,-0.34543405270233024
-0.38,-0.98,-0.2638078269012181
-0.36,-0.98,-0.17802119407871678
-0.33999999999999997,-0.98,-0.08942706068088736
-0.31999999999999995,-0.98,0.000577390885016486
-0.29999999999999993,-0.98,0.09057273665174699
-0.28,-0.98,0.1791396962559493
-0.26,-0.98,0.26488151583732794
-0.24,-0.98,0.34644599568140394
-0.21999999999999997,-0.98,0.4225468152167776
-0.19999999999999996,-0.98,0.4919838190589507
-0.17999999999999994,-0.98,0.5536619441776763
-0.16000000000000003,-0.98,0.6066084896951064
-0.14,-0.98,0.6499884569596976
-0.12,-0.98,0.6831177179737504
-0.09999999999999998,-0.98,0.7054738045006133
-0.07999999999999996,-0.98,0.7167041477008775
-0.05999999999999994,-0.98,0.7166316383535933
-0.040000000000000036,-0.98,0.7052574199744831
-0.020000000000000018,-0.98,0.6827608707820138
0.0,-0.98,0.649496774795738
0.020000000000000018,-0.98,0.605989726680367
0.040000000000000036,-0.98,0.5529258585745307
0.06000000000000005,-0.98,0.49114201937707713
0.08000000000000007,-0.98,0.42161257714002565
0.10000000000000009,-0.98,0.34543405270233013
0.1200000000000001,-0.98,0.263807826901218
0.14000000000000012,-0.98,0.17802119407871675
0.15999999999999992,-0.98,0.08942706068088728
0.17999999999999994,-0.98,-0.0005773908850165068
0.19999999999999996,-0.98,-0.090572736651747
0.21999999999999997,-0.98,-0.1791396962559493
0.24,-0.98,-0.2648815158373279
0.26,-0.98,-0.34644599568140383
0.28,-0.98,-0.4225468152167776
0.30000000000000004,-0.98,-0.4919838190589507
0.32000000000000006,-0.98,-0.5536619441776764
0.3400000000000001,-0.98,-0.6066084896951063
0.3600000000000001,-0.98,-0.6499884569596974
0.3800000000000001,-0.98,-0.6831177179737508
0.40000000000000013,-0.98,-0.7054738045006131
0.41999999999999993,-0.98,-0.7167041477008774
0.43999999999999995,-0.98,-0.7166316383535932
0.45999999999999996,-0.98,-0.705257419974483
0.48,-0.98,-0.6827608707820138
0.5,-0.98,-0.6494967747957379
0.52,-0.98,-0.6059897266803669
0.54,-0.98,-0.5529258585745305
0.56,-0.98,-0.49114201937707713
0.5800000000000001,-0.98,-0.4216125771400254
0.6000000000000001,-0.98,-0.3454340527023299
0.6200000000000001,-0.98,-0.26380782690121807
0.6400000000000001,-0.98,-0.17802119407871675
0.6600000000000001,-0.98,-0.08942706068088724
0.6799999999999999,-0.98,0.0005773908850165103
0.7,-0.98,0.09057273665174709
0.72,-0.98,0.17913969625594942
0.74,-0.98,0.2648815158373279
0.76,-0.98,0.34644599568140383
0.78,-0.98,0.42254681521677756
0.8,-0.98,0.4919838190589507
0.8200000000000001,-0.98,0.5536619441776764
0.8400000000000001,-0.98,0.6066084896951066
0.8600000000000001,-0.98,0.6499884569596975
0.8800000000000001,-0.98,0.6831177179737508
0.9000000000000001,-0.98,0.7054738045006131
0.9199999999999999,-0.98,0.7167041477008773
0.94,-0.98,0.7166316383535934
0.96,-0.98,0.7052574199744832
0.98,-0.98,0.6827608707820142
1.0,-0.98,0.649496774795738

-1.0,-0.96,0.5969643684688848
-0.98,-0.96,0.5529258585745302
-0.96,-0.96,0.5001673775885591
-0.94,-0.96,0.43952095827250715
-0.92,-0.96,0.37194303088740377
-0.9,-0.96,0.2984993397172089
-0.88,-0.96,0.22034813564481168
-0.86,-0.96,0.13872190984369956
-0.84,-0.96,0.05490795665590001
-0.8200000000000001,-0.96,-0.029771927808786423
-0.8,-0.96,-0.11398229118704084
-0.78,-0.96,-0.19639508574355538
-0.76,-0.96,-0.2757106124771564
-0.74,-0.96,-0.35067801815045596
-0.72,-0.96,-0.420115021992629
-0.7,-0.96,-0.48292656097342906
-0.6799999999999999,-0.96,-0.5381220596013341
-0.6599999999999999,-0.96,-0.5848310518907893
-0.64,-0.96,-0.6223169091307903
-0.62,-0.96,-0.649988456959697
-0.6,-0.96,-0.6674092985380656
-0.5800000000000001,-0.96,-0.6743046967874988
-0.56,-0.96,-0.6705659071584923
-0.54,-0.96,-0.6562518925969406
-0.52,-0.96,-0.6315883936632565
-0.5,-0.96,-0.5969643684688848
-0.48,-0.96,-0.5529258585745308
-0.45999999999999996,-0.96,-0.5001673775885594
-0.43999999999999995,-0.96,-0.43952095827250737
-0.42000000000000004,-0.96,-0.3719430308874038
-0.4,-0.96,-0.298499339717209
-0.38,-0.96,-0.22034813564481162
-0.36,-0.96,-0.1387219098436996
-0.33999999999999997,-0.96,-0.054907956655900036
-0.31999999999999995,-0.96,0.029771927808786486
-0.29999999999999993,-0.96,0.11398229118704094
-0.28,-0.96,0.19639508574355546
-0.26,-0.96,0.2757106124771565
-0.24,-0.96,0.3506780181504561
-0.21999999999999997,-0.96,0.4201150219926291
-0.19999999999999996,-0.96,0.4829265609734291
-0.17999999999999994,-0.96,0.5381220596013341
-0.16000000000000003,-0.96,0.5848310518907893
-0.14,-0.96,0.6223169091307903
-0.12,-0.96,0.649988456959697
-0.09999999999999998,-0.96,0.6674092985380656
-0.07999999999999996,-0.96,0.6743046967874989
-0.05999999999999994,-0.96,0.6705659071584925
-0.040000000000000036,-0.96,0.6562518925969402
-0.020000000000000018,-0.96,0.6315883936632565
0.0,-0.96,0.5969643684688847
0.020000000000000018,-0.96,0.5529258585745306
0.040000000000000036,-0.96,0.5001673775885592
0.06000000000000005,-0.96,0.43952095827250737
0.08000000000000007,-0.96,0.37194303088740366
0.10000000000000009,-0.96,0.2984993397172089
0.1200000000000001,-0.96,0.22034813564481162
0.14000000000000012,-0.96,0.1387219098436995
0.15999999999999992,-0.96,0.054907956655899995
0.17999999999999994,-0.96,-0.029771927808786514
0.19999999999999996,-0.96,-0.11398229118704095
0.21999999999999997,-0.96,-0.1963950857435554
0.24,-0.96,-0.27571061247715645
0.26,-0.96,-0.350678018150456
0.28,-0.96,-0.42011502199262907
0.30000000000000004,-0.96,-0.4829265609734291
0.32000000000000006,-0.96,-0.538122059601334
0.3400000000000001,-0.96,-0.5848310518907892
0.3600000000000001,-0.96,-0.6223169091307903
0.3800000000000001,-0.96,-0.6499884569596969
0.40000000000000013,-0.96,-0.6674092985380656
0.41999999999999993,-0.96,-0.6743046967874989
0.43999999999999995,-0.96,-0.6705659071584923
0.45999999999999996,-0.96,-0.6562518925969403
0.48,-0.96,-0.6315883936632564
0.5,-0.96,-0.5969643684688848
0.52,-0.96,-0.5529258585745306
0.54,-0.96,-0.5001673775885593
0.56,-0.96,-0.43952095827250715
0.5800000000000001,-0.96,-0.37194303088740344
0.6000000000000001,-0.96,-0.298499339717209
0.6200000000000001,-0.96,-0.2203481356448116
0.6400000000000001,-0.96,-0.13872190984369942
0.6600000000000001,-0.96,-0.05490795665589998
0.6799999999999999,-0.96,0.029771927808786566
0.7,-0.96,0.11398229118704102
0.72,-0.96,0.19639508574355544
0.74,-0.96,0.27571061247715645
0.76,-0.96,0.35067801815045596
0.78,-0.96,0.4201150219926291
0.8,-0.96,0.4829265609734291
0.8200000000000001,-0.96,0.5381220596013342
0.8400000000000001,-0.96,0.5848310518907892
0.8600000000000001,-0.96,0.6223169091307905
0.8800000000000001,-0.96,0.649988456959697
0.9000000000000001,-0.96,0.6674092985380655
0.9199999999999999,-0.96,0.6743046967874992
0.94,-0.96,0.6705659071584925
0.96,-0.96,0.6562518925969407
0.98,-0.96,0.6315883936632564
1.0,-0.96,0.5969643684688848

-1.0,-0.94,0.535017477442049
-0.98,-0.94,0.4911420193770769
-0.96,-0.94,0.43952095827250715
-0.94,-0.94,0.380968389098886
-0.92,-0.94,0.31640772084969054
-0.9,-0.94,0.2468571138298853
-0.88,-0.94,0.17341342265969054
-0.86,-0.94,0.09723489822199494
-0.84,-0.94,0.019522921354025828
-0.8200000000000001,-0.94,-0.0584969436461243
-0.8,-0.94,-0.13559427690059483
-0.78,-0.94,-0.210553207408248
-0.76,-0.94,-0.2821915880566837
-0.74,-0.94,-0.3493796387883818
-0.72,-0.94,-0.4110577639071076
-0.7,-0.94,-0.4662532625350126
-0.6799999999999999,-0.94,-0.5140956686865421
-0.6599999999999999,-0.94,-0.5538304790370181
-0.64,-0.94,-0.5848310518907889
-0.62,-0.94,-0.6066084896951056
-0.6,-0.94,-0.618819349246583
-0.5800000000000001,-0.94,-0.6212710579956806
-0.56,-0.94,-0.613924951030846
-0.54,-0.94,-0.5968968808472658
-0.52,-0.94,-0.5704553902838113
-0.5,-0.94,-0.5350174774420493
-0.48,-0.94,-0.49114201937707724
-0.45999999999999996,-0.94,-0.43952095827250737
-0.43999999999999995,-0.94,-0.38096838909888603
-0.42000000000000004,-0.94,-0.3164077208496906
-0.4,-0.94,-0.24685711382988523
-0.38,-0.94,-0.17341342265969054
-0.36,-0.94,-0.09723489822199499
-0.33999999999999997,-0.94,-0.019522921354025793
-0.31999999999999995,-0.94,0.0584969436461244
-0.29999999999999993,-0.94,0.13559427690059492
-0.28,-0.94,0.21055320740824815
-0.26,-0.94,0.28219158805668376
-0.24,-0.94,0.3493796387883819
-0.21999999999999997,-0.94,0.41105776390710774
-0.19999999999999996,-0.94,0.46625326253501265
-0.17999999999999994,-0.94,0.5140956686865421
-0.16000000000000003,-0.94,0.5538304790370181
-0.14,-0.94,0.5848310518907889
-0.12,-0.94,0.6066084896951055
-0.09999999999999998,-0.94,0.618819349246583
-0.07999999999999996,-0.94,0.6212710579956808
-0.05999999999999994,-0.94,0.6139249510308457
-0.040000000000000036,-0.94,0.5968968808472658
-0.020000000000000018,-0.94,0.5704553902838112
0.0,-0.94,0.5350174774420491
0.020000000000000018,-0.94,0.49114201937707697
0.040000000000000036,-0.94,0.43952095827250737
0.06000000000000005,-0.94,0.38096838909888586
0.08000000000000007,-0.94,0.3164077208496905
0.10000000000000009,-0.94,0.24685711382988526
0.1200000000000001,-0.94,0.1734134226596905
0.14000000000000012,-0.94,0.09723489822199494
0.15999999999999992,-0.94,0.01952292135402573
0.17999999999999994,-0.94,-0.05849694364612443
0.19999999999999996,-0.94,-0.13559427690059486
0.21999999999999997,-0.94,-0.2105532074082481
0.24,-0.94,-0.28219158805668376
0.26,-0.94,-0.3493796387883818
0.28,-0.94,-0.41105776390710763
0.30000000000000004,-0.94,-0.46625326253501254
0.32000000000000006,-0.94,-0.514095668686542
0.3400000000000001,-0.94,-0.5538304790370181
0.3600000000000001,-0.94,-0.5848310518907888
0.3800000000000001,-0.94,-0.6066084896951055
0.40000000000000013,-0.94,-0.6188193492465831
0.41999999999999993,-0.94,-0.6212710579956805
0.43999999999999995,-0.94,-0.6139249510308459
0.45999999999999996,-0.94,-0.5968968808472657
0.48,-0.94,-0.5704553902838114
0.5,-0.94,-0.5350174774420492
0.52,-0.94,-0.4911420193770772
0.54,-0.94,-0.43952095827250715
0.56,-0.94,-0.38096838909888564
0.5800000000000001,-0.94,-0.3164077208496906
0.6000000000000001,-0.94,-0.24685711382988523
0.6200000000000001,-0.94,-0.17341342265969042
0.6400000000000001,-0.94,-0.09723489822199491
0.6600000000000001,-0.94,-0.019522921354025707
0.6799999999999999,-0.94,0.05849694364612448
0.7,-0.94,0.1355942769005949
0.72,-0.94,0.2105532074082481
0.74,-0.94,0.28219158805668365
0.76,-0.94,0.3493796387883819
0.78,-0.94,0.41105776390710763
0.8,-0.94,0.4662532625350126
0.8200000000000001,-0.94,0.5140956686865421
0.8400000000000001,-0.94,0.5538304790370183
0.8600000000000001,-0.94,0.5848310518907888
0.8800000000000001,-0.94,0.6066084896951055
0.9000000000000001,-0.94,0.6188193492465833
0.9199999999999999,-0.94,0.6212710579956808
0.94,-0.94,0.6139249510308461
0.96,-0.94,0.5968968808472657
0.98,-0.94,0.5704553902838113
1.0,-0.94,0.535017477442049

-1.0,-0.92,0.46463304119200344
-0.98,-0.92,0.4216125771400255
-0.96,-0.92,0.37194303088740377
-0.94,-0.92,0.31640772084969054
-0.92,-0.92,0.25588247204136755
-0.9,-0.92,0.19132180379217226
-0.88,-0.92,0.12374387640706859
-0.86,-0.92,0.05421443417001683
-0.84,-0.92,-0.016170002080029357
-0.8200000000000001,-0.92,-0.08629942773778254
-0.8,-0.92,-0.15506785986733154
-0.78,-0.92,-0.2213907792137233
-0.76,-0.92,-0.2842222337194735
-0.74,-0.92,-0.3425713338133354
-0.72,-0.92,-0.3955178793307653
-0.7,-0.92,-0.4422268716202206
-0.6799999999999999,-0.92,-0.4819616819706968
-0.6599999999999999,-0.92,-0.5140956686865418
-0.64,-0.92,-0.5381220596013335
-0.62,-0.92,-0.5536619441776753
-0.6,-0.92,-0.5604702491527209
-0.5800000000000001,-0.92,-0.55843960348993
-0.56,-0.92,-0.5476020316844541
-0.54,-0.92,-0.5281284487177168
-0.52,-0.92,-0.5003259646260587
-0.5,-0.92,-0.46463304119200366
-0.48,-0.92,-0.4216125771400257
-0.45999999999999996,-0.92,-0.37194303088740377
-0.43999999999999995,-0.92,-0.3164077208496906
-0.42000000000000004,-0.92,-0.2558824720413675
-0.4,-0.92,-0.19132180379217226
-0.38,-0.92,-0.12374387640706863
-0.36,-0.92,-0.054214434170016826
-0.33999999999999997,-0.92,0.016170002080029455
-0.31999999999999995,-0.92,0.0862994277377826
-0.29999999999999993,-0.92,0.15506785986733163
-0.28,-0.92,0.22139077921372335
-0.26,-0.92,0.2842222337194737
-0.24,-0.92,0.34257133381333554
-0.21999999999999997,-0.92,0.39551787933076543
-0.19999999999999996,-0.92,0.4422268716202207
-0.17999999999999994,-0.92,0.4819616819706967
-0.16000000000000003,-0.92,0.5140956686865418
-0.14,-0.92,0.5381220596013335
-0.12,-0.92,0.5536619441776752
-0.09999999999999998,-0.92,0.560470249152721
-0.07999999999999996,-0.92,0.5584396034899298
-0.05999999999999994,-0.92,0.5476020316844541
-0.040000000000000036,-0.92,0.5281284487177168
-0.020000000000000018,-0.92,0.5003259646260585
0.0,-0.92,0.46463304119200344
0.020000000000000018,-0.92,0.4216125771400257
0.040000000000000036,-0.92,0.3719430308874037
0.06000000000000005,-0.92,0.31640772084969054
0.08000000000000007,-0.92,0.2558824720413675
0.10000000000000009,-0.92,0.19132180379217226
0.1200000000000001,-0.92,0.12374387640706859
0.14000000000000012,-0.92,0.054214434170016756
0.15999999999999992,-0.92,-0.016170002080029475
0.17999999999999994,-0.92,-0.08629942773778258
0.19999999999999996,-0.92,-0.1550678598673316
0.21999999999999997,-0.92,-0.22139077921372335
0.24,-0.92,-0.2842222337194736
0.26,-0.92,-0.3425713338133354
0.28,-0.92,-0.3955178793307654
0.30000000000000004,-0.92,-0.4422268716202206
0.32000000000000006,-0.92,-0.4819616819706967
0.3400000000000001,-0.92,-0.5140956686865417
0.3600000000000001,-0.92,-0.5381220596013335
0.3800000000000001,-0.92,-0.5536619441776752
0.40000000000000013,-0.92,-0.5604702491527207
0.41999999999999993,-0.92,-0.5584396034899299
0.43999999999999995,-0.92,-0.5476020316844539
0.45999999999999996,-0.92,-0.5281284487177169
0.48,-0.92,-0.5003259646260585
0.5,-0.92,-0.4646330411920036
0.52,-0.92,-0.42161257714002554
0.54,-0.92,-0.37194303088740355
0.56,-0.92,-0.31640772084969065
0.5800000000000001,-0.92,-0.2558824720413675
0.6000000000000001,-0.92,-0.19132180379217212
0.6200000000000001,-0.92,-0.12374387640706858
0.6400000000000001,-0.92,-0.054214434170016736
0.6600000000000001,-0.92,0.01617000208002951
0.6799999999999999,-0.92,0.0862994277377826
0.7,-0.92,0.1550678598673316
0.72,-0.92,0.22139077921372338
0.74,-0.92,0.28422223371947375
0.76,-0.92,0.34257133381333543
0.78,-0.92,0.3955178793307654
0.8,-0.92,0.4422268716202206
0.8200000000000001,-0.92,0.4819616819706969
0.8400000000000001,-0.92,0.5140956686865417
0.8600000000000001,-0.92,0.5381220596013335
0.8800000000000001,-0.92,0.5536619441776754
0.9000000000000001,-0.92,0.560470249152721
0.9199999999999999,-0.92,0.5584396034899302
0.94,-0.92,0.547602031684454
0.96,-0.92,0.5281284487177169
0.98,-0.92,0.5003259646260584
1.0,-0.92,0.46463304119200344

-1.0,-0.9,0.38692106432403456
-0.98,-0.9,0.34543405270233024
-0.96,-0.9,0.29849933971720893
-0.94,-0.9,0.2468571138298853
-0.92,-0.9,0.19132180379217226
-0.9,-0.9,0.13276923461855084
-0.88,-0.9,0.07212281530249856
-0.86,-0.9,0.010338976105044306
-0.84,-0.9,-0.05160791492179152
-0.8200000000000001,-0.9,-0.11274091830123659
-0.8,-0.9,-0.17209593005091112
-0.78,-0.9,-0.2287368861785572
-0.76,-0.9,-0.281770524970375
-0.74,-0.9,-0.33036047426185705
-0.72,-0.9,-0.3737404415264484
-0.7,-0.9,-0.4112262987664497
-0.6799999999999999,-0.9,-0.4422268716202204
-0.6599999999999999,-0.9,-0.4662532625350122
-0.64,-0.9,-0.4829265609734284
-0.62,-0.9,-0.4919838190589492
-0.6,-0.9,-0.4932821984210223
-0.5800000000000001,-0.9,-0.4868012228414942
-0.56,-0.9,-0.47264310117680086
-0.54,-0.9,-0.4510311154632468
-0.52,-0.9,-0.4223060996259089
-0.5,-0.9,-0.3869210643240348
-0.48,-0.9,-0.3454340527023302
-0.45999999999999996,-0.9,-0.298499339717209
-0.43999999999999995,-0.9,-0.2468571138298853
-0.42000000000000004,-0.9,-0.19132180379217226
-0.4,-0.9,-0.1327692346185509
-0.38,-0.9,-0.07212281530249855
-0.36,-0.9,-0.010338976105044233
-0.33999999999999997,-0.9,0.05160791492179155
-0.31999999999999995,-0.9,0.11274091830123667
-0.29999999999999993,-0.9,0.1720959300509112
-0.28,-0.9,0.22873688617855734
-0.26,-0.9,0.2817705249703752
-0.24,-0.9,0.3303604742618572
-0.21999999999999997,-0.9,0.37374044152644853
-0.19999999999999996,-0.9,0.4112262987664496
-0.17999999999999994,-0.9,0.44222687162022045
-0.16000000000000003,-0.9,0.46625326253501237
-0.14,-0.9,0.48292656097342834
-0.12,-0.9,0.4919838190589494
-0.09999999999999998,-0.9,0.49328219842102217
-0.07999999999999996,-0.9,0.48680122284149413
-0.05999999999999994,-0.9,0.47264310117680086
-0.040000000000000036,-0.9,0.45103111546324665
-0.020000000000000018,-0.9,0.4223060996259087
0.0,-0.9,0.3869210643240348
0.020000000000000018,-0.9,0.3454340527023302
0.040000000000000036,-0.9,0.298499339717209
0.06000000000000005,-0.9,0.24685711382988526
0.08000000000000007,-0.9,0.19132180379217226
0.10000000000000009,-0.9,0.13276923461855084
0.1200000000000001,-0.9,0.07212281530249848
0.14000000000000012,-0.9,0.010338976105044213
0.15999999999999992,-0.9,-0.051607914921791564
0.17999999999999994,-0.9,-0.11274091830123668
0.19999999999999996,-0.9,-0.17209593005091117
0.21999999999999997,-0.9,-0.22873688617855725
0.24,-0.9,-0.281770524970375
0.26,-0.9,-0.3303604742618572
0.28,-0.9,-0.3737404415264484
0.30000000000000004,-0.9,-0.41122629876644967
0.32000000000000006,-0.9,-0.4422268716202204
0.3400000000000001,-0.9,-0.46625326253501226
0.3600000000000001,-0.9,-0.4829265609734283
0.3800000000000001,-0.9,-0.4919838190589491
0.40000000000000013,-0.9,-0.4932821984210223
0.41999999999999993,-0.9,-0.4868012228414941
0.43999999999999995,-0.9,-0.47264310117680086
0.45999999999999996,-0.9,-0.45103111546324665
0.48,-0.9,-0.42230609962590887
0.5,-0.9,-0.3869210643240347
0.52,-0.9,-0.34543405270233
0.54,-0.9,-0.29849933971720904
0.56,-0.9,-0.2468571138298853
0.5800000000000001,-0.9,-0.19132180379217215
0.6000000000000001,-0.9,-0.13276923461855084
0.6200000000000001,-0.9,-0.07212281530249848
0.6400000000000001,-0.9,-0.010338976105044181
0.6600000000000001,-0.9,0.051607914921791564
0.6799999999999999,-0.9,0.11274091830123666
0.7,-0.9,0.1720959300509112
0.72,-0.9,0.22873688617855734
0.74,-0.9,0.2817705249703751
0.76,-0.9,0.3303604742618572
0.78,-0.9,0.37374044152644836
0.8,-0.9,0.41122629876644984
0.8200000000000001,-0.9,0.44222687162022034
0.8400000000000001,-0.9,0.46625326253501226
0.8600000000000001,-0.9,0.4829265609734285
0.8800000000000001,-0.9,0.4919838190589493
0.9000000000000001,-0.9,0.4932821984210224
0.9199999999999999,-0.9,0.48680122284149396
0.94,-0.9,0.472643101176801
0.96,-0.9,0.4510311154632466
0.98,-0.9,0.4223060996259087
1.0,-0.9,0.38692106432403456

-1.0,-0.88,0.3031071111362355
-0.98,-0.88,0.2638078269012182
-0.96,-0.88,0.22034813564481168
-0.94,-0.88,0.17341342265969054
-0.92,-0.88,0.12374387640706863
-0.9,-0.88,0.07212281530249856
-0.88,-0.88,0.019364334316526538
-0.86,-0.88,-0.033699533789309774
-0.84,-0.88,-0.08623194011616292
-0.8200000000000001,-0.88,-0.1374044172349201
-0.8,-0.88,-0.18640994461246238
-0.78,-0.88,-0.2324756758075629
-0.76,-0.88,-0.2748751267209407
-0.74,-0.88,-0.31293963268348807
-0.72,-0.88,-0.34606889369754157
-0.7,-0.88,-0.3737404415264483
-0.6799999999999999,-0.88,-0.3955178793307651
-0.6599999999999999,-0.88,-0.41105776390710713
-0.64,-0.88,-0.4201150219926281
-0.62,-0.88,-0.4225468152167755
-0.6,-0.88,-0.4183147927477224
-0.5800000000000001,-0.88,-0.4074856961078931
-0.56,-0.88,-0.39023030662028674
-0.54,-0.88,-0.3668207520849927
-0.52,-0.88,-0.3376262151612227
-0.5,-0.88,-0.30310711113623545
-0.48,-0.88,-0.26380782690121807
-0.45999999999999996,-0.88,-0.2203481356448117
-0.43999999999999995,-0.88,-0.17341342265969056
-0.42000000000000004,-0.88,-0.12374387640706869
-0.4,-0.88,-0.07212281530249856
-0.38,-0.88,-0.019364334316526476
-0.36,-0.88,0.03369953378930979
-0.33999999999999997,-0.88,0.08623194011616298
-0.31999999999999995,-0.88,0.13740441723492022
-0.29999999999999993,-0.88,0.18640994461246246
-0.28,-0.88,0.23247567580756304
-0.26,-0.88,0.27487512672094083
-0.24,-0.88,0.3129396326834881
-0.21999999999999997,-0.88,0.3460688936975415
-0.19999999999999996,-0.88,0.3737404415264483
-0.17999999999999994,-0.88,0.3955178793307652
-0.16000000000000003,-0.88,0.41105776390710713
-0.14,-0.88,0.4201150219926283
-0.12,-0.88,0.42254681521677545
-0.09999999999999998,-0.88,0.41831479274772226
-0.07999999999999996,-0.88,0.4074856961078931
-0.05999999999999994,-0.88,0.3902303066202866
-0.040000000000000036,-0.88,0.36682075208499254
-0.020000000000000018,-0.88,0.3376262151612227
0.0,-0.88,0.30310711113623545
0.020000000000000018,-0.88,0.2638078269012181
0.040000000000000036,-0.88,0.22034813564481165
0.06000000000000005,-0.88,0.17341342265969054
0.08000000000000007,-0.88,0.12374387640706863
0.10000000000000009,-0.88,0.07212281530249848
0.1200000000000001,-0.88,0.01936433431652646
0.14000000000000012,-0.88,-0.03369953378930979
0.15999999999999992,-0.88,-0.08623194011616302
0.17999999999999994,-0.88,-0.1374044172349202
0.19999999999999996,-0.88,-0.1864099446124625
0.21999999999999997,-0.88,-0.23247567580756293
0.24,-0.88,-0.27487512672094083
0.26,-0.88,-0.31293963268348807
0.28,-0.88,-0.34606889369754146
0.30000000000000004,-0.88,-0.37374044152644825
0.32000000000000006,-0.88,-0.3955178793307652
0.3400000000000001,-0.88,-0.411057763907107
0.3600000000000001,-0.88,-0.420115021992628
0.3800000000000001,-0.88,-0.42254681521677556
0.40000000000000013,-0.88,-0.4183147927477223
0.41999999999999993,-0.88,-0.40748569610789304
0.43999999999999995,-0.88,-0.3902303066202867
0.45999999999999996,-0.88,-0.36682075208499265
0.48,-0.88,-0.3376262151612227
0.5,-0.88,-0.30310711113623534
0.52,-0.88,-0.2638078269012182
0.54,-0.88,-0.22034813564481168
0.56,-0.88,-0.17341342265969045
0.5800000000000001,-0.88,-0.12374387640706863
0.6000000000000001,-0.88,-0.07212281530249849
0.6200000000000001,-0.88,-0.01936433431652644
0.6400000000000001,-0.88,0.0336995337893098
0.6600000000000001,-0.88,0.08623194011616299
0.6799999999999999,-0.88,0.13740441723492022
0.7,-0.88,0.1864099446124625
0.72,-0.88,0.23247567580756295
0.74,-0.88,0.27487512672094083
0.76,-0.88,0.31293963268348807
0.78,-0.88,0.3460688936975416
0.8,-0.88,0.3737404415264482
0.8200000000000001,-0.88,0.39551787933076515
0.8400000000000001,-0.88,0.4110577639071072
0.8600000000000001,-0.88,0.4201150219926281
0.8800000000000001,-0.88,0.42254681521677556
0.9000000000000001,-0.88,0.4183147927477222
0.9199999999999999,-0.88,0.4074856961078931
0.94,-0.88,0.39023030662028657
0.96,-0.88,0.36682075208499254
0.98,-0.88,0.3376262151612226
1.0,-0.88,0.3031071111362355

-1.0,-0.86,0.21451297773840608
-0.98,-0.86,0.17802119407871683
-0.96,-0.86,0.13872190984369956
-0.94,-0.86,0.09723489822199496
-0.92,-0.86,0.054214434170016826
-0.9,-0.86,0.010338976105044289
-0.88,-0.86,-0.03369953378930977
-0.86,-0.86,-0.07720658190468067
-0.84,-0.86,-0.11949603610243838
-0.8200000000000001,-0.86,-0.1599009664273888
-0.8,-0.86,-0.197784162991572
-0.78,-0.86,-0.2325481851548459
-0.76,-0.86,-0.2636447835206759
-0.74,-0.86,-0.2905835461566251
-0.72,-0.86,-0.3129396326834879
-0.7,-0.86,-0.3303604742618569
-0.6799999999999999,-0.86,-0.342571333813335
-0.6599999999999999,-0.86,-0.3493796387883811
-0.64,-0.86,-0.35067801815045435
-0.62,-0.86,-0.3464459956814013
-0.6,-0.86,-0.33675031290364627
-0.5800000000000001,-0.86,-0.32174387652651487
-0.56,-0.86,-0.30166334701608477
-0.54,-0.86,-0.2768254063182625
-0.52,-0.86,-0.24762176359531915
-0.5,-0.86,-0.214512977738406
-0.48,-0.86,-0.17802119407871686
-0.45999999999999996,-0.86,-0.13872190984369961
-0.43999999999999995,-0.86,-0.09723489822199502
-0.42000000000000004,-0.86,-0.054214434170016826
-0.4,-0.86,-0.010338976105044244
-0.38,-0.86,0.03369953378930979
-0.36,-0.86,0.07720658190468072
-0.33999999999999997,-0.86,0.11949603610243845
-0.31999999999999995,-0.86,0.15990096642738885
-0.29999999999999993,-0.86,0.19778416299157212
-0.28,-0.86,0.232548185154846
-0.26,-0.86,0.263644783520676
-0.24,-0.86,0.29058354615662507
-0.21999999999999997,-0.86,0.31293963268348796
-0.19999999999999996,-0.86,0.33036047426185705
-0.17999999999999994,-0.86,0.342571333813335
-0.16000000000000003,-0.86,0.34937963878838124
-0.14,-0.86,0.35067801815045435
-0.12,-0.86,0.3464459956814012
-0.09999999999999998,-0.86,0.3367503129036463
-0.07999999999999996,-0.86,0.3217438765265148
-0.05999999999999994,-0.86,0.3016633470160846
-0.040000000000000036,-0.86,0.2768254063182625
-0.020000000000000018,-0.86,0.24762176359531915
0.0,-0.86,0.21451297773840602
0.020000000000000018,-0.86,0.17802119407871683
0.040000000000000036,-0.86,0.1387219098436996
0.06000000000000005,-0.86,0.09723489822199496
0.08000000000000007,-0.86,0.05421443417001676
0.10000000000000009,-0.86,0.010338976105044233
0.1200000000000001,-0.86,-0.033699533789309774
0.14000000000000012,-0.86,-0.07720658190468077
0.15999999999999992,-0.86,-0.11949603610243845
0.17999999999999994,-0.86,-0.15990096642738888
0.19999999999999996,-0.86,-0.19778416299157206
0.21999999999999997,-0.86,-0.232548185154846
0.24,-0.86,-0.2636447835206759
0.26,-0.86,-0.29058354615662507
0.28,-0.86,-0.31293963268348796
0.30000000000000004,-0.86,-0.33036047426185705
0.32000000000000006,-0.86,-0.3425713338133349
0.3400000000000001,-0.86,-0.34937963878838096
0.3600000000000001,-0.86,-0.35067801815045446