TITLE = "Solution" 
VARIABLES = "x", "y", "sol" 
ZONE STRANDID=1, SOLUTIONTIME= 0.14999999999999997, I= 101, J =101, DATAPACKING=POINT 
-1.0,-1.0,0.5985241507473662
-0.98,-1.0,0.5342051148033882
-0.96,-1.0,0.4614613450802929
-0.94,-1.0,0.38144005428163597
-0.92,-1.0,0.29540322596571406
-0.9,-1.0,0.20470771231097912
-0.88,-1.0,0.11078383574664008
-0.86,-1.0,0.015112831913520745
-0.84,-1.0,-0.08079651030684296
-0.8200000000000001,-1.0,-0.17543164329417196
-0.8,-1.0,-0.26730011446896784
-0.78,-1.0,-0.3549531031612395
-0.76,-1.0,-0.4370082693779525
-0.74,-1.0,-0.5121715541304889
-0.72,-1.0,-0.5792575875179315
-0.7,-1.0,-0.6372083827185062
-0.6799999999999999,-1.0,-0.6851100210737731
-0.6599999999999999,-1.0,-0.7222070651318179
-0.64,-1.0,-0.7479144723471449
-0.62,-1.0,-0.761826821551108
-0.6,-1.0,-0.7637247066859258
-0.5800000000000001,-1.0,-0.7535781969692812
-0.56,-1.0,-0.7315473089206369
-0.54,-1.0,-0.6979794828051339
-0.52,-1.0,-0.6534041032930615
-0.5,-1.0,-0.5985241507473662
-0.48,-1.0,-0.5342051148033881
-0.45999999999999996,-1.0,-0.46146134508029296
-0.43999999999999995,-1.0,-0.38144005428163585
-0.42000000000000004,-1.0,-0.29540322596571383
-0.4,-1.0,-0.20470771231097895
-0.38,-1.0,-0.11078383574663989
-0.36,-1.0,-0.01511283191352069
-0.33999999999999997,-1.0,0.08079651030684294
-0.31999999999999995,-1.0,0.1754316432941719
-0.29999999999999993,-1.0,0.26730011446896773
-0.28,-1.0,0.3549531031612394
-0.26,-1.0,0.43700826937795245
-0.24,-1.0,0.5121715541304889
-0.21999999999999997,-1.0,0.5792575875179314
-0.19999999999999996,-1.0,0.6372083827185061
-0.17999999999999994,-1.0,0.685110021073773
-0.16000000000000003,-1.0,0.7222070651318178
-0.14,-1.0,0.7479144723471447
-0.12,-1.0,0.761826821551108
-0.09999999999999998,-1.0,0.763724706685926
-0.07999999999999996,-1.0,0.7535781969692814
-0.05999999999999994,-1.0,0.7315473089206369
-0.040000000000000036,-1.0,0.6979794828051339
-0.020000000000000018,-1.0,0.6534041032930618
0.0,-1.0,0.5985241507473662
0.020000000000000018,-1.0,0.5342051148033878
0.040000000000000036,-1.0,0.4614613450802928
0.06000000000000005,-1.0,0.38144005428163574
0.08000000000000007,-1.0,0.2954032259657137
0.10000000000000009,-1.0,0.20470771231097878
0.1200000000000001,-1.0,0.11078383574663987
0.14000000000000012,-1.0,0.01511283191352071
0.15999999999999992,-1.0,-0.0807965103068429
0.17999999999999994,-1.0,-0.17543164329417185
0.19999999999999996,-1.0,-0.2673001144689677
0.21999999999999997,-1.0,-0.35495310316123946
0.24,-1.0,-0.4370082693779526
0.26,-1.0,-0.512171554130489
0.28,-1.0,-0.5792575875179313
0.30000000000000004,-1.0,-0.6372083827185062
0.32000000000000006,-1.0,-0.6851100210737728
0.3400000000000001,-1.0,-0.7222070651318175
0.3600000000000001,-1.0,-0.7479144723471448
0.3800000000000001,-1.0,-0.761826821551108
0.40000000000000013,-1.0,-0.7637247066859261
0.41999999999999993,-1.0,-0.7535781969692814
0.43999999999999995,-1.0,-0.7315473089206368
0.45999999999999996,-1.0,-0.697979482805134
0.48,-1.0,-0.6534041032930615
0.5,-1.0,-0.598524150747366
0.52,-1.0,-0.5342051148033878
0.54,-1.0,-0.4614613450802928
0.56,-1.0,-0.3814400542816358
0.5800000000000001,-1.0,-0.29540322596571394
0.6000000000000001,-1.0,-0.20470771231097903
0.6200000000000001,-1.0,-0.11078383574664008
0.6400000000000001,-1.0,-0.015112831913520867
0.6600000000000001,-1.0,0.08079651030684279
0.6799999999999999,-1.0,0.17543164329417174
0.7,-1.0,0.26730011446896756
0.72,-1.0,0.35495310316123935
0.74,-1.0,0.43700826937795245
0.76,-1.0,0.512171554130489
0.78,-1.0,0.5792575875179315
0.8,-1.0,0.6372083827185062
0.8200000000000001,-1.0,0.685110021073773
0.8400000000000001,-1.0,0.7222070651318178
0.8600000000000001,-1.0,0.7479144723471448
0.8800000000000001,-1.0,0.7618268215511079
0.9000000000000001,-1.0,0.7637247066859261
0.9199999999999999,-1.0,0.7535781969692815
0.94,-1.0,0.7315473089206369
0.96,-1.0,0.697979482805134
0.98,-1.0,0.6534041032930616
1.0,-1.0,0.5985241507473661

-1.0,-0.98,0.534205114803388
-0.98,-0.98,0.47541091332454954
-0.96,-0.98,0.40911919774586913
-0.94,-0.98,0.3363754280227741
-0.92,-0.98,0.2583268168588192
-0.9,-0.98,0.17620423747604022
-0.88,-0.98,0.09130281200895453
-0.86,-0.98,0.004961486654831464
-0.84,-0.98,-0.08145808430768674
-0.8200000000000001,-0.98,-0.1665930126199718
-0.8,-0.98,-0.24910066960539787
-0.78,-0.98,-0.3276798602256197
-0.76,-0.98,-0.4010913437036231
-0.74,-0.98,-0.46817737709106566
-0.72,-0.98,-0.5278799735661733
-0.7,-0.98,-0.5792575875179314
-0.6799999999999999,-0.98,-0.6214999632828219
-0.6599999999999999,-0.98,-0.6539409133606598
-0.64,-0.98,-0.6760688245894337
-0.62,-0.98,-0.6875347265904925
-0.6,-0.98,-0.6881577952398816
-0.5800000000000001,-0.98,-0.677928204372797
-0.56,-0.98,-0.6570072807480739
-0.54,-0.98,-0.6257249598288283
-0.52,-0.98,-0.5845745825031096
-0.5,-0.98,-0.5342051148033881
-0.48,-0.98,-0.47541091332454966
-0.45999999999999996,-0.98,-0.40911919774586925
-0.43999999999999995,-0.98,-0.336375428022774
-0.42000000000000004,-0.98,-0.25832681685881903
-0.4,-0.98,-0.17620423747603997
-0.38,-0.98,-0.0913028120089544
-0.36,-0.98,-0.004961486654831412
-0.33999999999999997,-0.98,0.08145808430768674
-0.31999999999999995,-0.98,0.16659301261997175
-0.29999999999999993,-0.98,0.24910066960539778
-0.28,-0.98,0.32767986022561957
-0.26,-0.98,0.4010913437036231
-0.24,-0.98,0.46817737709106555
-0.21999999999999997,-0.98,0.5278799735661732
-0.19999999999999996,-0.98,0.5792575875179314
-0.17999999999999994,-0.98,0.6214999632828218
-0.16000000000000003,-0.98,0.6539409133606597
-0.14,-0.98,0.6760688245894338
-0.12,-0.98,0.6875347265904926
-0.09999999999999998,-0.98,0.6881577952398816
-0.07999999999999996,-0.98,0.677928204372797
-0.05999999999999994,-0.98,0.6570072807480738
-0.040000000000000036,-0.98,0.6257249598288285
-0.020000000000000018,-0.98,0.5845745825031096
0.0,-0.98,0.534205114803388
0.020000000000000018,-0.98,0.47541091332454954
0.040000000000000036,-0.98,0.4091191977458691
0.06000000000000005,-0.98,0.33637542802277387
0.08000000000000007,-0.98,0.2583268168588188
0.10000000000000009,-0.98,0.17620423747603992
0.1200000000000001,-0.98,0.09130281200895436
0.14000000000000012,-0.98,0.004961486654831454
0.15999999999999992,-0.98,-0.08145808430768667
0.17999999999999994,-0.98,-0.16659301261997164
0.19999999999999996,-0.98,-0.24910066960539778
0.21999999999999997,-0.98,-0.32767986022561973
0.24,-0.98,-0.4010913437036232
0.26,-0.98,-0.46817737709106555
0.28,-0.98,-0.5278799735661734
0.30000000000000004,-0.98,-0.5792575875179313
0.32000000000000006,-0.98,-0.6214999632828216
0.3400000000000001,-0.98,-0.6539409133606596
0.3600000000000001,-0.98,-0.6760688245894338
0.3800000000000001,-0.98,-0.6875347265904926
0.40000000000000013,-0.98,-0.6881577952398815
0.41999999999999993,-0.98,-0.6779282043727969
0.43999999999999995,-0.98,-0.6570072807480738
0.45999999999999996,-0.98,-0.6257249598288284
0.48,-0.98,-0.5845745825031095
0.5,-0.98,-0.5342051148033878
0.52,-0.98,-0.4754109133245495
0.54,-0.98,-0.409119197745869
0.56,-0.98,-0.3363754280227739
0.5800000000000001,-0.98,-0.25832681685881903
0.6000000000000001,-0.98,-0.17620423747604014
0.6200000000000001,-0.98,-0.09130281200895456
0.6400000000000001,-0.98,-0.004961486654831558
0.6600000000000001,-0.98,0.08145808430768657
0.6799999999999999,-0.98,0.16659301261997156
0.7,-0.98,0.24910066960539773
0.72,-0.98,0.3276798602256196
0.74,-0.98,0.40109134370362315
0.76,-0.98,0.4681773770910657
0.78,-0.98,0.5278799735661732
0.8,-0.98,0.5792575875179313
0.8200000000000001,-0.98,0.6214999632828219
0.8400000000000001,-0.98,0.6539409133606596
0.8600000000000001,-0.98,0.6760688245894338
0.8800000000000001,-0.98,0.6875347265904928
0.9000000000000001,-0.98,0.6881577952398816
0.9199999999999999,-0.98,0.677928204372797
0.94,-0.98,0.6570072807480739
0.96,-0.98,0.6257249598288284
0.98,-0.98,0.5845745825031096
1.0,-0.98,0.534205114803388

-1.0,-0.96,0.46146134508029285
-0.98,-0.96,0.40911919774586913
-0.96,-0.96,0.35032499626703073
-0.94,-0.96,0.2860059603230525
-0.92,-0.96,0.21717643953310042
-0.9,-0.96,0.14492191655679468
-0.88,-0.96,0.07038188838423166
-0.86,-0.96,-0.005268104212252978
-0.84,-0.96,-0.08083501565829743
-0.8200000000000001,-0.96,-0.1551271106189127
-0.8,-0.96,-0.2269727583766237
-0.78,-0.96,-0.29523891014778153
-0.76,-0.96,-0.35884896793873283
-0.74,-0.96,-0.41679976313930756
-0.72,-0.96,-0.4681773770910656
-0.7,-0.96,-0.5121715541304891
-0.6799999999999999,-0.96,-0.5480884798048182
-0.6599999999999999,-0.96,-0.575361722740438
-0.64,-0.96,-0.5935611676040076
-0.62,-0.96,-0.6023997982782078
-0.6,-0.96,-0.6017382242773636
-0.5800000000000001,-0.96,-0.5915868790186741
-0.56,-0.96,-0.5721058552809886
-0.54,-0.96,-0.5436023804460496
-0.52,-0.96,-0.5065259713391548
-0.5,-0.96,-0.4614613450802929
-0.48,-0.96,-0.40911919774586925
-0.45999999999999996,-0.96,-0.35032499626703073
-0.43999999999999995,-0.96,-0.28600596032305237
-0.42000000000000004,-0.96,-0.21717643953310023
-0.4,-0.96,-0.14492191655679457
-0.38,-0.96,-0.07038188838423153
-0.36,-0.96,0.005268104212253016
-0.33999999999999997,-0.96,0.08083501565829741
-0.31999999999999995,-0.96,0.15512711061891266
-0.29999999999999993,-0.96,0.2269727583766236
-0.28,-0.96,0.2952389101477815
-0.26,-0.96,0.3588489679387327
-0.24,-0.96,0.4167997631393075
-0.21999999999999997,-0.96,0.46817737709106566
-0.19999999999999996,-0.96,0.512171554130489
-0.17999999999999994,-0.96,0.5480884798048182
-0.16000000000000003,-0.96,0.575361722740438
-0.14,-0.96,0.5935611676040078
-0.12,-0.96,0.6023997982782077
-0.09999999999999998,-0.96,0.6017382242773636
-0.07999999999999996,-0.96,0.591586879018674
-0.05999999999999994,-0.96,0.5721058552809886
-0.040000000000000036,-0.96,0.5436023804460496
-0.020000000000000018,-0.96,0.5065259713391548
0.0,-0.96,0.46146134508029296
0.020000000000000018,-0.96,0.4091191977458692
0.040000000000000036,-0.96,0.3503249962670306
0.06000000000000005,-0.96,0.28600596032305226
0.08000000000000007,-0.96,0.21717643953310015
0.10000000000000009,-0.96,0.14492191655679446
0.1200000000000001,-0.96,0.07038188838423154
0.14000000000000012,-0.96,-0.005268104212252971
0.15999999999999992,-0.96,-0.08083501565829734
0.17999999999999994,-0.96,-0.15512711061891266
0.19999999999999996,-0.96,-0.22697275837662365
0.21999999999999997,-0.96,-0.2952389101477816
0.24,-0.96,-0.3588489679387329
0.26,-0.96,-0.41679976313930767
0.28,-0.96,-0.4681773770910656
0.30000000000000004,-0.96,-0.5121715541304889
0.32000000000000006,-0.96,-0.5480884798048181
0.3400000000000001,-0.96,-0.575361722740438
0.3600000000000001,-0.96,-0.5935611676040077
0.3800000000000001,-0.96,-0.6023997982782077
0.40000000000000013,-0.96,-0.6017382242773635
0.41999999999999993,-0.96,-0.591586879018674
0.43999999999999995,-0.96,-0.5721058552809886
0.45999999999999996,-0.96,-0.5436023804460495
0.48,-0.96,-0.5065259713391547
0.5,-0.96,-0.4614613450802928
0.52,-0.96,-0.4091191977458691
0.54,-0.96,-0.3503249962670306
0.56,-0.96,-0.2860059603230523
0.5800000000000001,-0.96,-0.2171764395331003
0.6000000000000001,-0.96,-0.14492191655679465
0.6200000000000001,-0.96,-0.07038188838423166
0.6400000000000001,-0.96,0.005268104212252874
0.6600000000000001,-0.96,0.08083501565829727
0.6799999999999999,-0.96,0.1551271106189126
0.7,-0.96,0.22697275837662356
0.72,-0.96,0.29523891014778153
0.74,-0.96,0.35884896793873283
0.76,-0.96,0.41679976313930744
0.78,-0.96,0.46817737709106566
0.8,-0.96,0.512171554130489
0.8200000000000001,-0.96,0.5480884798048181
0.8400000000000001,-0.96,0.5753617227404381
0.8600000000000001,-0.96,0.5935611676040078
0.8800000000000001,-0.96,0.6023997982782077
0.9000000000000001,-0.96,0.6017382242773636
0.9199999999999999,-0.96,0.5915868790186741
0.94,-0.96,0.5721058552809886
0.96,-0.96,0.5436023804460496
0.98,-0.96,0.5065259713391548
1.0,-0.96,0.46146134508029285

-1.0,-0.94,0.3814400542816359
-0.98,-0.94,0.3363754280227741
-0.96,-0.94,0.28600596032305253
-0.94,-0.94,0.23112600777735715
-0.92,-0.94,0.17260106002102807
-0.9,-0.94,0.11135409044129196
-0.88,-0.94,0.048351000335587216
-0.86,-0.94,-0.015414613928897297
-0.84,-0.94,-0.07893713052347905
-0.8200000000000001,-0.94,-0.1412147614149494
-0.8,-0.94,-0.20126535116129646
-0.78,-0.94,-0.2581418660897369
-0.76,-0.94,-0.310947329583466
-0.74,-0.94,-0.3588489679387329
-0.72,-0.94,-0.40109134370362326
-0.7,-0.94,-0.43700826937795256
-0.6799999999999999,-0.94,-0.46603331358810535
-0.6599999999999999,-0.94,-0.4877087340481662
-0.64,-0.94,-0.501692696429212
-0.62,-0.94,-0.5077646652908788
-0.6,-0.94,-0.5058288820570003
-0.5800000000000001,-0.94,-0.49591587518555524
-0.56,-0.94,-0.47818197871664986
-0.54,-0.94,-0.4529068667913148
-0.52,-0.94,-0.4204891430232328
-0.5,-0.94,-0.381440054281636
-0.48,-0.94,-0.33637542802277415
-0.45999999999999996,-0.94,-0.2860059603230525
-0.43999999999999995,-0.94,-0.231126007777357
-0.42000000000000004,-0.94,-0.17260106002102799
-0.4,-0.94,-0.11135409044129181
-0.38,-0.94,-0.04835100033558715
-0.36,-0.94,0.015414613928897328
-0.33999999999999997,-0.94,0.07893713052347902
-0.31999999999999995,-0.94,0.14121476141494937
-0.29999999999999993,-0.94,0.20126535116129643
-0.28,-0.94,0.2581418660897368
-0.26,-0.94,0.31094732958346594
-0.24,-0.94,0.35884896793873283
-0.21999999999999997,-0.94,0.40109134370362315
-0.19999999999999996,-0.94,0.4370082693779525
-0.17999999999999994,-0.94,0.4660333135881052
-0.16000000000000003,-0.94,0.48770873404816634
-0.14,-0.94,0.501692696429212
-0.12,-0.94,0.5077646652908789
-0.09999999999999998,-0.94,0.5058288820570002
-0.07999999999999996,-0.94,0.49591587518555524
-0.05999999999999994,-0.94,0.4781819787166499
-0.040000000000000036,-0.94,0.45290686679131487
-0.020000000000000018,-0.94,0.4204891430232329
0.0,-0.94,0.38144005428163597
0.020000000000000018,-0.94,0.3363754280227741
0.040000000000000036,-0.94,0.28600596032305237
0.06000000000000005,-0.94,0.23112600777735692
0.08000000000000007,-0.94,0.17260106002102787
0.10000000000000009,-0.94,0.11135409044129177
0.1200000000000001,-0.94,0.048351000335587146
0.14000000000000012,-0.94,-0.015414613928897276
0.15999999999999992,-0.94,-0.078937130523479
0.17999999999999994,-0.94,-0.14121476141494935
0.19999999999999996,-0.94,-0.20126535116129646
0.21999999999999997,-0.94,-0.25814186608973694
0.24,-0.94,-0.3109473295834661
0.26,-0.94,-0.35884896793873294
0.28,-0.94,-0.4010913437036232
0.30000000000000004,-0.94,-0.43700826937795245
0.32000000000000006,-0.94,-0.4660333135881052
0.3400000000000001,-0.94,-0.4877087340481662
0.3600000000000001,-0.94,-0.5016926964292119
0.3800000000000001,-0.94,-0.5077646652908788
0.40000000000000013,-0.94,-0.5058288820570002
0.41999999999999993,-0.94,-0.4959158751855552
0.43999999999999995,-0.94,-0.4781819787166498
0.45999999999999996,-0.94,-0.45290686679131476
0.48,-0.94,-0.42048914302323276
0.5,-0.94,-0.3814400542816358
0.52,-0.94,-0.336375428022774
0.54,-0.94,-0.2860059603230523
0.56,-0.94,-0.23112600777735706
0.5800000000000001,-0.94,-0.17260106002102804
0.6000000000000001,-0.94,-0.11135409044129192
0.6200000000000001,-0.94,-0.04835100033558726
0.6400000000000001,-0.94,0.0154146139288972
0.6600000000000001,-0.94,0.07893713052347895
0.6799999999999999,-0.94,0.14121476141494926
0.7,-0.94,0.20126535116129637
0.72,-0.94,0.2581418660897368
0.74,-0.94,0.31094732958346594
0.76,-0.94,0.35884896793873283
0.78,-0.94,0.4010913437036232
0.8,-0.94,0.43700826937795245
0.8200000000000001,-0.94,0.4660333135881053
0.8400000000000001,-0.94,0.48770873404816634
0.8600000000000001,-0.94,0.501692696429212
0.8800000000000001,-0.94,0.5077646652908788
0.9000000000000001,-0.94,0.5058288820570003
0.9199999999999999,-0.94,0.49591587518555524
0.94,-0.94,0.47818197871664986
0.96,-0.94,0.4529068667913149
0.98,-0.94,0.4204891430232328
1.0,-0.94,0.3814400542816359

-1.0,-0.92,0.295403225965714
-0.98,-0.92,0.2583268168588192
-0.96,-0.92,0.21717643953310042
-0.94,-0.92,0.17260106002102807
-0.92,-0.92,0.12530365868554874
-0.9,-0.92,0.07603014379982068
-0.88,-0.92,0.025557588128162993
-0.86,-0.92,-0.025318025975638907
-0.84,-0.92,-0.07579435968554937
-0.8200000000000001,-0.92,-0.12507537106586286
-0.8,-0.92,-0.17238386912806267
-0.78,-0.92,-0.21697377059698095
-0.76,-0.92,-0.25814186608973694
-0.74,-0.92,-0.29523891014778164
-0.72,-0.92,-0.3276798602256198
-0.7,-0.92,-0.3549531031612396
-0.6799999999999999,-0.92,-0.3766285236213006
-0.6599999999999999,-0.92,-0.3923642872768793
-0.64,-0.92,-0.40191223173503754
-0.62,-0.92,-0.40512178020800454
-0.6,-0.92,-0.40194231619907034
-0.5800000000000001,-0.92,-0.3924239817549758
-0.56,-0.92,-0.3767168866958814
-0.54,-0.92,-0.3550687412938329
-0.52,-0.92,-0.32782094973379605
-0.5,-0.92,-0.29540322596571406
-0.48,-0.92,-0.2583268168588192
-0.45999999999999996,-0.92,-0.21717643953310037
-0.43999999999999995,-0.92,-0.172601060021028
-0.42000000000000004,-0.92,-0.12530365868554857
-0.4,-0.92,-0.07603014379982058
-0.38,-0.92,-0.025557588128162945
-0.36,-0.92,0.025318025975638925
-0.33999999999999997,-0.92,0.07579435968554935
-0.31999999999999995,-0.92,0.12507537106586283
-0.29999999999999993,-0.92,0.1723838691280626
-0.28,-0.92,0.2169737705969809
-0.26,-0.92,0.2581418660897369
-0.24,-0.92,0.2952389101477816
-0.21999999999999997,-0.92,0.32767986022561973
-0.19999999999999996,-0.92,0.35495310316123946
-0.17999999999999994,-0.92,0.3766285236213006
-0.16000000000000003,-0.92,0.39236428727687933
-0.14,-0.92,0.40191223173503754
-0.12,-0.92,0.4051217802080045
-0.09999999999999998,-0.92,0.4019423161990704
-0.07999999999999996,-0.92,0.3924239817549758
-0.05999999999999994,-0.92,0.37671688669588144
-0.040000000000000036,-0.92,0.35506874129383303
-0.020000000000000018,-0.92,0.32782094973379605
0.0,-0.92,0.295403225965714
0.020000000000000018,-0.92,0.25832681685881914
0.040000000000000036,-0.92,0.2171764395331003
0.06000000000000005,-0.92,0.17260106002102793
0.08000000000000007,-0.92,0.12530365868554852
0.10000000000000009,-0.92,0.07603014379982054
0.1200000000000001,-0.92,0.02555758812816295
0.14000000000000012,-0.92,-0.025318025975638894
0.15999999999999992,-0.92,-0.0757943596855493
0.17999999999999994,-0.92,-0.1250753710658628
0.19999999999999996,-0.92,-0.17238386912806264
0.21999999999999997,-0.92,-0.21697377059698097
0.24,-0.92,-0.25814186608973694
0.26,-0.92,-0.2952389101477817
0.28,-0.92,-0.32767986022561973
0.30000000000000004,-0.92,-0.3549531031612395
0.32000000000000006,-0.92,-0.37662852362130056
0.3400000000000001,-0.92,-0.3923642872768793
0.3600000000000001,-0.92,-0.40191223173503754
0.3800000000000001,-0.92,-0.4051217802080045
0.40000000000000013,-0.92,-0.40194231619907034
0.41999999999999993,-0.92,-0.3924239817549758
0.43999999999999995,-0.92,-0.3767168866958814
0.45999999999999996,-0.92,-0.3550687412938329
0.48,-0.92,-0.32782094973379594
0.5,-0.92,-0.295403225965714
0.52,-0.92,-0.25832681685881903
0.54,-0.92,-0.21717643953310034
0.56,-0.92,-0.17260106002102804
0.5800000000000001,-0.92,-0.12530365868554866
0.6000000000000001,-0.92,-0.07603014379982066
0.6200000000000001,-0.92,-0.025557588128163042
0.6400000000000001,-0.92,0.02531802597563885
0.6600000000000001,-0.92,0.07579435968554926
0.6799999999999999,-0.92,0.12507537106586275
0.7,-0.92,0.17238386912806258
0.72,-0.92,0.2169737705969809
0.74,-0.92,0.2581418660897369
0.76,-0.92,0.29523891014778164
0.78,-0.92,0.3276798602256198
0.8,-0.92,0.3549531031612395
0.8200000000000001,-0.92,0.3766285236213006
0.8400000000000001,-0.92,0.3923642872768792
0.8600000000000001,-0.92,0.4019122317350375
0.8800000000000001,-0.92,0.40512178020800454
0.9000000000000001,-0.92,0.4019423161990704
0.9199999999999999,-0.92,0.39242398175497584
0.94,-0.92,0.3767168866958815
0.96,-0.92,0.35506874129383303
0.98,-0.92,0.327820949733796
1.0,-0.92,0.295403225965714

-1.0,-0.9,0.20470771231097915
-0.98,-0.9,0.1762042374760402
-0.96,-0.9,0.1449219165567947
-0.94,-0.9,0.11135409044129196
-0.92,-0.9,0.07603014379982068
-0.9,-0.9,0.03950715637241975
-0.88,-0.9,0.0023611174885944924
-0.86,-0.9,-0.03482215762848914
-0.84,-0.9,-0.07145626651802278
-0.8200000000000001,-0.9,-0.10696346739866264
-0.8,-0.9,-0.14078379050154735
-0.78,-0.9,-0.17238386912806264
-0.76,-0.9,-0.20126535116129654
-0.74,-0.9,-0.22697275837662378
-0.72,-0.9,-0.249100669605398
-0.7,-0.9,-0.2673001144689678
-0.6799999999999999,-0.9,-0.2812840768500135
-0.6599999999999999,-0.9,-0.2908320213081717
-0.64,-0.9,-0.2957933710556718
-0.62,-0.9,-0.2960898826432289
-0.6,-0.9,-0.2917168799059799
-0.5800000000000001,-0.9,-0.2827433277093964
-0.56,-0.9,-0.26931074433215874
-0.54,-0.9,-0.2516309696383625
-0.52,-0.9,-0.2299828242363141
-0.5,-0.9,-0.20470771231097912
-0.48,-0.9,-0.1762042374760402
-0.45999999999999996,-0.9,-0.1449219165567947
-0.43999999999999995,-0.9,-0.11135409044129185
-0.42000000000000004,-0.9,-0.07603014379982058
-0.4,-0.9,-0.03950715637241969
-0.38,-0.9,-0.002361117488594456
-0.36,-0.9,0.03482215762848914
-0.33999999999999997,-0.9,0.07145626651802277
-0.31999999999999995,-0.9,0.10696346739866261
-0.29999999999999993,-0.9,0.14078379050154732
-0.28,-0.9,0.17238386912806264
-0.26,-0.9,0.20126535116129649
-0.24,-0.9,0.22697275837662373
-0.21999999999999997,-0.9,0.24910066960539787
-0.19999999999999996,-0.9,0.2673001144689678
-0.17999999999999994,-0.9,0.2812840768500135
-0.16000000000000003,-0.9,0.29083202130817176
-0.14,-0.9,0.29579337105567177
-0.12,-0.9,0.2960898826432289
-0.09999999999999998,-0.9,0.2917168799059799
-0.07999999999999996,-0.9,0.2827433277093964
-0.05999999999999994,-0.9,0.26931074433215885
-0.040000000000000036,-0.9,0.2516309696383625
-0.020000000000000018,-0.9,0.2299828242363141
0.0,-0.9,0.20470771231097915
0.020000000000000018,-0.9,0.17620423747604017
0.040000000000000036,-0.9,0.1449219165567946
0.06000000000000005,-0.9,0.1113540904412918
0.08000000000000007,-0.9,0.07603014379982051
0.10000000000000009,-0.9,0.039507156372419666
0.1200000000000001,-0.9,0.00236111748859447
0.14000000000000012,-0.9,-0.03482215762848911
0.15999999999999992,-0.9,-0.07145626651802274
0.17999999999999994,-0.9,-0.1069634673986626
0.19999999999999996,-0.9,-0.14078379050154735
0.21999999999999997,-0.9,-0.17238386912806267
0.24,-0.9,-0.20126535116129657
0.26,-0.9,-0.22697275837662378
0.28,-0.9,-0.2491006696053979
0.30000000000000004,-0.9,-0.2673001144689678
0.32000000000000006,-0.9,-0.28128407685001344
0.3400000000000001,-0.9,-0.2908320213081717
0.3600000000000001,-0.9,-0.29579337105567177
0.3800000000000001,-0.9,-0.2960898826432289
0.40000000000000013,-0.9,-0.2917168799059799
0.41999999999999993,-0.9,-0.2827433277093964
0.43999999999999995,-0.9,-0.2693107443321588
0.45999999999999996,-0.9,-0.25163096963836246
0.48,-0.9,-0.22998282423631405
0.5,-0.9,-0.20470771231097903
0.52,-0.9,-0.17620423747604014
0.54,-0.9,-0.14492191655679465
0.56,-0.9,-0.1113540904412919
0.5800000000000001,-0.9,-0.07603014379982065
0.6000000000000001,-0.9,-0.03950715637241976
0.6200000000000001,-0.9,-0.00236111748859452
0.6400000000000001,-0.9,0.03482215762848906
0.6600000000000001,-0.9,0.07145626651802271
0.6799999999999999,-0.9,0.10696346739866257
0.7,-0.9,0.1407837905015473
0.72,-0.9,0.17238386912806267
0.74,-0.9,0.20126535116129654
0.76,-0.9,0.22697275837662378
0.78,-0.9,0.24910066960539795
0.8,-0.9,0.26730011446896773
0.8200000000000001,-0.9,0.28128407685001344
0.8400000000000001,-0.9,0.29083202130817165
0.8600000000000001,-0.9,0.29579337105567177
0.8800000000000001,-0.9,0.2960898826432289
0.9000000000000001,-0.9,0.2917168799059799
0.9199999999999999,-0.9,0.2827433277093965
0.94,-0.9,0.26931074433215885
0.96,-0.9,0.2516309696383625
0.98,-0.9,0.22998282423631405
1.0,-0.9,0.20470771231097915

-1.0,-0.88,0.11078383574664008
-0.98,-0.88,0.09130281200895454
-0.96,-0.88,0.07038188838423165
-0.94,-0.88,0.048351000335587244
-0.92,-0.88,0.025557588128163
-0.9,-0.88,0.0023611174885944854
-0.88,-0.88,-0.020872589384232414
-0.86,-0.88,-0.043777123053789425
-0.84,-0.88,-0.06599126534160243
-0.8200000000000001,-0.88,-0.08716468595370727
-0.8,-0.88,-0.10696346739866261
-0.78,-0.88,-0.12507537106586286
-0.76,-0.88,-0.14121476141494943
-0.74,-0.88,-0.1551271106189128
-0.72,-0.88,-0.16659301261997173
-0.7,-0.88,-0.17543164329417177
-0.6799999999999999,-0.88,-0.1815036121558388
-0.6599999999999999,-0.88,-0.18471316062880588
-0.64,-0.88,-0.185009672216363
-0.62,-0.88,-0.18238847075364703
-0.6,-0.88,-0.17689089415355475
-0.5800000000000001,-0.88,-0.16860364248316276
-0.56,-0.88,-0.15765741065187733
-0.54,-0.88,-0.14422482727463978
-0.52,-0.88,-0.12851773221554544
-0.5,-0.88,-0.1107838357466401
-0.48,-0.88,-0.09130281200895457
-0.45999999999999996,-0.88,-0.0703818883842316
-0.43999999999999995,-0.88,-0.04835100033558717
-0.42000000000000004,-0.88,-0.025557588128162934
-0.4,-0.88,-0.002361117488594442
-0.38,-0.88,0.02087258938423242
-0.36,-0.88,0.04377712305378941
-0.33999999999999997,-0.88,0.06599126534160242
-0.31999999999999995,-0.88,0.08716468595370724
-0.29999999999999993,-0.88,0.1069634673986626
-0.28,-0.88,0.1250753710658628
-0.26,-0.88,0.14121476141494937
-0.24,-0.88,0.15512711061891268
-0.21999999999999997,-0.88,0.1665930126199717
-0.19999999999999996,-0.88,0.17543164329417177
-0.17999999999999994,-0.88,0.18150361215583882
-0.16000000000000003,-0.88,0.18471316062880588
-0.14,-0.88,0.185009672216363
-0.12,-0.88,0.18238847075364703
-0.09999999999999998,-0.88,0.17689089415355475
-0.07999999999999996,-0.88,0.16860364248316276
-0.05999999999999994,-0.88,0.15765741065187736
-0.040000000000000036,-0.88,0.1442248272746398
-0.020000000000000018,-0.88,0.12851773221554547
0.0,-0.88,0.11078383574664011
0.020000000000000018,-0.88,0.0913028120089545
0.040000000000000036,-0.88,0.07038188838423157
0.06000000000000005,-0.88,0.048351000335587105
0.08000000000000007,-0.88,0.025557588128162896
0.10000000000000009,-0.88,0.002361117488594437
0.1200000000000001,-0.88,-0.020872589384232396
0.14000000000000012,-0.88,-0.04377712305378937
0.15999999999999992,-0.88,-0.06599126534160238
0.17999999999999994,-0.88,-0.08716468595370723
0.19999999999999996,-0.88,-0.10696346739866261
0.21999999999999997,-0.88,-0.12507537106586286
0.24,-0.88,-0.14121476141494943
0.26,-0.88,-0.15512711061891277
0.28,-0.88,-0.1665930126199717
0.30000000000000004,-0.88,-0.1754316432941717
0.32000000000000006,-0.88,-0.18150361215583874
0.3400000000000001,-0.88,-0.18471316062880583
0.3600000000000001,-0.88,-0.185009672216363
0.3800000000000001,-0.88,-0.182388470753647
0.40000000000000013,-0.88,-0.17689089415355477
0.41999999999999993,-0.88,-0.16860364248316279
0.43999999999999995,-0.88,-0.15765741065187733
0.45999999999999996,-0.88,-0.14422482727463978
0.48,-0.88,-0.1285177322155454
0.5,-0.88,-0.11078383574664005
0.52,-0.88,-0.09130281200895449
0.54,-0.88,-0.07038188838423161
0.56,-0.88,-0.0483510003355872
0.5800000000000001,-0.88,-0.025557588128162993
0.6000000000000001,-0.88,-0.0023611174885944924
0.6200000000000001,-0.88,0.020872589384232358
0.6400000000000001,-0.88,0.04377712305378937
0.6600000000000001,-0.88,0.06599126534160238
0.6799999999999999,-0.88,0.08716468595370722
0.7,-0.88,0.10696346739866261
0.72,-0.88,0.12507537106586286
0.74,-0.88,0.14121476141494943
0.76,-0.88,0.15512711061891277
0.78,-0.88,0.16659301261997167
0.8,-0.88,0.1754316432941717
0.8200000000000001,-0.88,0.18150361215583874
0.8400000000000001,-0.88,0.18471316062880586
0.8600000000000001,-0.88,0.18500967221636302
0.8800000000000001,-0.88,0.182388470753647
0.9000000000000001,-0.88,0.17689089415355477
0.9199999999999999,-0.88,0.1686036424831628
0.94,-0.88,0.15765741065187738
0.96,-0.88,0.14422482727463976
0.98,-0.88,0.12851773221554547
1.0,-0.88,0.11078383574664008

-1.0,-0.86,0.015112831913520784
-0.98,-0.86,0.004961486654831482
-0.96,-0.86,-0.005268104212252947
-0.94,-0.86,-0.015414613928897297
-0.92,-0.86,-0.025318025975638928
-0.9,-0.86,-0.03482215762848915
-0.88,-0.86,-0.04377712305378943
-0.86,-0.86,-0.05204169709734572
-0.84,-0.86,-0.05948554248947389
-0.8200000000000001,-0.86,-0.06599126534160238
-0.8,-0.86,-0.07145626651802271
-0.78,-0.86,-0.07579435968554929
-0.76,-0.86,-0.07893713052347898
-0.74,-0.86,-0.08083501565829729
-0.72,-0.86,-0.08145808430768652
-0.7,-0.86,-0.08079651030684261
-0.6799999999999999,-0.86,-0.07886072707296408
-0.6599999999999999,-0.86,-0.07568126306402999
-0.64,-0.86,-0.07130826032678103
-0.62,-0.86,-0.06581068372668877
-0.6,-0.86,-0.05927523333082978
-0.5800000000000001,-0.86,-0.05180497709603558
-0.56,-0.86,-0.043517725425643625
-0.54,-0.86,-0.0345441732290602
-0.52,-0.86,-0.025025838784965677
-0.5,-0.86,-0.015112831913520794
-0.48,-0.86,-0.004961486654831454
-0.45999999999999996,-0.86,0.005268104212252982
-0.43999999999999995,-0.86,0.015414613928897345
-0.42000000000000004,-0.86,0.02531802597563897
-0.4,-0.86,0.03482215762848917
-0.38,-0.86,0.04377712305378942
-0.36,-0.86,0.05204169709734569
-0.33999999999999997,-0.86,0.059485542489473846
-0.31999999999999995,-0.86,0.06599126534160235
-0.29999999999999993,-0.86,0.07145626651802268
-0.28,-0.86,0.07579435968554926
-0.26,-0.86,0.07893713052347893
-0.24,-0.86,0.08083501565829726
-0.21999999999999997,-0.86,0.0814580843076865
-0.19999999999999996,-0.86,0.08079651030684261
-0.17999999999999994,-0.86,0.07886072707296408
-0.16000000000000003,-0.86,0.07568126306403
-0.14,-0.86,0.07130826032678103
-0.12,-0.86,0.06581068372668877
-0.09999999999999998,-0.86,0.05927523333082977
-0.07999999999999996,-0.86,0.05180497709603559
-0.05999999999999994,-0.86,0.043517725425643666
-0.040000000000000036,-0.86,0.03454417322906022
-0.020000000000000018,-0.86,0.02502583878496569
0.0,-0.86,0.015112831913520766
0.020000000000000018,-0.86,0.004961486654831454
0.040000000000000036,-0.86,-0.00526810421225303
0.06000000000000005,-0.86,-0.015414613928897394
0.08000000000000007,-0.86,-0.025318025975638984
0.10000000000000009,-0.86,-0.034822157628489156
0.1200000000000001,-0.86,-0.04377712305378937
0.14000000000000012,-0.86,-0.05204169709734565
0.15999999999999992,-0.86,-0.05948554248947382
0.17999999999999994,-0.86,-0.06599126534160235
0.19999999999999996,-0.86,-0.07145626651802273
0.21999999999999997,-0.86,-0.07579435968554929
0.24,-0.86,-0.07893713052347898
0.26,-0.86,-0.08083501565829726
0.28,-0.86,-0.08145808430768647
0.30000000000000004,-0.86,-0.08079651030684255