TITLE = "Solution" 
VARIABLES = "x", "y", "sol" 
ZONE STRANDID=1, SOLUTIONTIME= 0.9000000000000006, I= 101, J =101, DATAPACKING=POINT 
-1.0,-1.0,0.09070234316874898
-0.98,-1.0,0.14958662234622377
-0.96,-1.0,0.20611183113058215
-0.94,-1.0,0.2593865332127713
-0.92,-1.0,0.30857055471619066
-0.9,-1.0,0.35288823424062143
-0.88,-1.0,0.39164065550586474
-0.86,-1.0,0.42421666967899313
-0.84,-1.0,0.4501025335565284
-0.8200000000000001,-1.0,0.4688900116016564
-0.8,-1.0,0.4802828140625101
-0.78,-1.0,0.4841012696385515
-0.76,-1.0,0.48028515900431246
-0.74,-1.0,0.468894664504129
-0.72,-1.0,0.45010942104061996
-0.7,-1.0,0.4242256831249654
-0.6799999999999999,-1.0,0.39165165276629094
-0.6599999999999999,-1.0,0.3529010418821349
-0.64,-1.0,0.30858497075463365
-0.62,-1.0,0.25940233029860565
-0.6,-1.0,0.20612876013432785
-0.5800000000000001,-1.0,0.1496044162873788
-0.56,-1.0,0.09072072142623146
-0.54,-1.0,0.030406306594260395
-0.52,-1.0,-0.030387633856549363
-0.5,-1.0,-0.09070234316874884
-0.48,-1.0,-0.14958662234622375
-0.45999999999999996,-1.0,-0.206111831130582
-0.43999999999999995,-1.0,-0.2593865332127714
-0.42000000000000004,-1.0,-0.30857055471619077
-0.4,-1.0,-0.35288823424062166
-0.38,-1.0,-0.3916406555058649
-0.36,-1.0,-0.4242166696789931
-0.33999999999999997,-1.0,-0.4501025335565284
-0.31999999999999995,-1.0,-0.4688900116016566
-0.29999999999999993,-1.0,-0.48028281406251017
-0.28,-1.0,-0.4841012696385516
-0.26,-1.0,-0.48028515900431257
-0.24,-1.0,-0.46889466450412914
-0.21999999999999997,-1.0,-0.45010942104062
-0.19999999999999996,-1.0,-0.4242256831249655
-0.17999999999999994,-1.0,-0.3916516527662909
-0.16000000000000003,-1.0,-0.3529010418821349
-0.14,-1.0,-0.3085849707546337
-0.12,-1.0,-0.2594023302986057
-0.09999999999999998,-1.0,-0.2061287601343278
-0.07999999999999996,-1.0,-0.14960441628737875
-0.05999999999999994,-1.0,-0.09072072142623147
-0.040000000000000036,-1.0,-0.030406306594260295
-0.020000000000000018,-1.0,0.030387633856549405
0.0,-1.0,0.09070234316874892
0.020000000000000018,-1.0,0.14958662234622389
0.040000000000000036,-1.0,0.20611183113058196
0.06000000000000005,-1.0,0.2593865332127714
0.08000000000000007,-1.0,0.3085705547161909
0.10000000000000009,-1.0,0.35288823424062166
0.1200000000000001,-1.0,0.3916406555058649
0.14000000000000012,-1.0,0.4242166696789932
0.15999999999999992,-1.0,0.45010253355652835
0.17999999999999994,-1.0,0.46889001160165666
0.19999999999999996,-1.0,0.4802828140625102
0.21999999999999997,-1.0,0.48410126963855143
0.24,-1.0,0.48028515900431284
0.26,-1.0,0.4688946645041292
0.28,-1.0,0.45010942104061996
0.30000000000000004,-1.0,0.4242256831249654
0.32000000000000006,-1.0,0.3916516527662908
0.3400000000000001,-1.0,0.35290104188213506
0.3600000000000001,-1.0,0.3085849707546337
0.3800000000000001,-1.0,0.2594023302986056
0.40000000000000013,-1.0,0.20612876013432774
0.41999999999999993,-1.0,0.14960441628737867
0.43999999999999995,-1.0,0.09072072142623139
0.45999999999999996,-1.0,0.030406306594260347
0.48,-1.0,-0.030387633856549426
0.5,-1.0,-0.09070234316874887
0.52,-1.0,-0.14958662234622377
0.54,-1.0,-0.20611183113058207
0.56,-1.0,-0.2593865332127713
0.5800000000000001,-1.0,-0.3085705547161908
0.6000000000000001,-1.0,-0.35288823424062166
0.6200000000000001,-1.0,-0.39164065550586474
0.6400000000000001,-1.0,-0.4242166696789929
0.6600000000000001,-1.0,-0.45010253355652824
0.6799999999999999,-1.0,-0.46889001160165655
0.7,-1.0,-0.4802828140625103
0.72,-1.0,-0.48410126963855166
0.74,-1.0,-0.48028515900431273
0.76,-1.0,-0.4688946645041291
0.78,-1.0,-0.45010942104062
0.8,-1.0,-0.4242256831249653
0.8200000000000001,-1.0,-0.391651652766291
0.8400000000000001,-1.0,-0.35290104188213495
0.8600000000000001,-1.0,-0.3085849707546337
0.8800000000000001,-1.0,-0.2594023302986056
0.9000000000000001,-1.0,-0.20612876013432763
0.9199999999999999,-1.0,-0.14960441628737864
0.94,-1.0,-0.09072072142623137
0.96,-1.0,-0.030406306594260312
0.98,-1.0,0.030387633856549474
1.0,-1.0,0.09070234316874898

-1.0,-0.98,0.14958662234622377
-0.98,-0.98,0.21381558059156652
-0.96,-0.98,0.2746725394037434
-0.94,-0.98,0.3311977481881015
-0.92,-0.98,0.38249977063558876
-0.9,-0.98,0.4277695432058655
-0.88,-0.98,0.4662931345426471
-0.86,-0.98,0.49746300459767384
-0.84,-0.98,0.5207875859002004
-0.8200000000000001,-0.98,0.5358990358696564
-0.8,-0.98,0.5425590379128811
-0.78,-0.98,0.5406625598191607
-0.76,-0.98,0.5302395101809347
-0.74,-0.98,0.5114542667174256
-0.72,-0.98,0.48460308393981316
-0.7,-0.98,0.4501094210406198
-0.6799999999999999,-0.98,0.40851726368928076
-0.6599999999999999,-0.98,0.36048254505317723
-0.64,-0.98,0.30676280133975053
-0.62,-0.98,0.24820522499798126
-0.6,-0.98,0.18573330398737925
-0.5800000000000001,-0.98,0.12033225782119861
-0.56,-0.98,0.053033500066171135
-0.54,-0.98,-0.015101627665577252
-0.52,-0.98,-0.08299859370776447
-0.5,-0.98,-0.14958662234622372
-0.48,-0.98,-0.21381558059156636
-0.45999999999999996,-0.98,-0.27467253940374353
-0.43999999999999995,-0.98,-0.3311977481881016
-0.42000000000000004,-0.98,-0.38249977063558893
-0.4,-0.98,-0.42776954320586563
-0.38,-0.98,-0.466293134542647
-0.36,-0.98,-0.49746300459767384
-0.33999999999999997,-0.98,-0.5207875859002006
-0.31999999999999995,-0.98,-0.5358990358696566
-0.29999999999999993,-0.98,-0.5425590379128811
-0.28,-0.98,-0.5406625598191607
-0.26,-0.98,-0.5302395101809348
-0.24,-0.98,-0.5114542667174257
-0.21999999999999997,-0.98,-0.4846030839398134
-0.19999999999999996,-0.98,-0.45010942104061974
-0.17999999999999994,-0.98,-0.4085172636892807
-0.16000000000000003,-0.98,-0.3604825450531773
-0.14,-0.98,-0.3067628013397506
-0.12,-0.98,-0.24820522499798117
-0.09999999999999998,-0.98,-0.18573330398737917
-0.07999999999999996,-0.98,-0.12033225782119861
-0.05999999999999994,-0.98,-0.05303350006617105
-0.040000000000000036,-0.98,0.015101627665577287
-0.020000000000000018,-0.98,0.08299859370776455
0.0,-0.98,0.14958662234622386
0.020000000000000018,-0.98,0.2138155805915663
0.040000000000000036,-0.98,0.27467253940374353
0.06000000000000005,-0.98,0.3311977481881017
0.08000000000000007,-0.98,0.38249977063558904
0.10000000000000009,-0.98,0.42776954320586574
0.1200000000000001,-0.98,0.46629313454264715
0.14000000000000012,-0.98,0.4974630045976738
0.15999999999999992,-0.98,0.5207875859002006
0.17999999999999994,-0.98,0.5358990358696565
0.19999999999999996,-0.98,0.5425590379128808
0.21999999999999997,-0.98,0.5406625598191609
0.24,-0.98,0.5302395101809348
0.26,-0.98,0.5114542667174256
0.28,-0.98,0.48460308393981316
0.30000000000000004,-0.98,0.4501094210406197
0.32000000000000006,-0.98,0.4085172636892809
0.3400000000000001,-0.98,0.36048254505317734
0.3600000000000001,-0.98,0.3067628013397505
0.3800000000000001,-0.98,0.24820522499798117
0.40000000000000013,-0.98,0.1857333039873791
0.41999999999999993,-0.98,0.12033225782119851
0.43999999999999995,-0.98,0.05303350006617111
0.45999999999999996,-0.98,-0.015101627665577308
0.48,-0.98,-0.08299859370776455
0.5,-0.98,-0.14958662234622377
0.52,-0.98,-0.2138155805915664
0.54,-0.98,-0.2746725394037435
0.56,-0.98,-0.3311977481881016
0.5800000000000001,-0.98,-0.38249977063558893
0.6000000000000001,-0.98,-0.4277695432058655
0.6200000000000001,-0.98,-0.46629313454264676
0.6400000000000001,-0.98,-0.4974630045976737
0.6600000000000001,-0.98,-0.5207875859002005
0.6799999999999999,-0.98,-0.5358990358696567
0.7,-0.98,-0.5425590379128812
0.72,-0.98,-0.5406625598191608
0.74,-0.98,-0.5302395101809347
0.76,-0.98,-0.5114542667174257
0.78,-0.98,-0.48460308393981305
0.8,-0.98,-0.4501094210406199
0.8200000000000001,-0.98,-0.4085172636892809
0.8400000000000001,-0.98,-0.36048254505317734
0.8600000000000001,-0.98,-0.3067628013397504
0.8800000000000001,-0.98,-0.24820522499798103
0.9000000000000001,-0.98,-0.18573330398737914
0.9199999999999999,-0.98,-0.12033225782119852
0.94,-0.98,-0.053033500066171066
0.96,-0.98,0.015101627665577363
0.98,-0.98,0.08299859370776463
1.0,-0.98,0.14958662234622377

-1.0,-0.96,0.20611183113058215
-0.98,-0.96,0.27467253940374337
-0.96,-0.96,0.33890149764908584
-0.94,-0.96,0.39778577682656097
-0.92,-0.96,0.45039673667777635
-0.9,-0.96,0.49590467093761464
-0.88,-0.96,0.5335918922976748
-0.86,-0.96,0.5628640507638544
-0.84,-0.96,0.5832595069108019
-0.8200000000000001,-0.96,0.5944566122114254
-0.8,-0.96,0.5962787816263069
-0.78,-0.96,0.588697278455264
-0.76,-0.96,0.5718316675322735
-0.74,-0.96,0.5459479296166189
-0.72,-0.96,0.5114542667174252
-0.7,-0.96,0.4688946645041286
-0.6799999999999999,-0.96,0.41894031332750614
-0.6599999999999999,-0.96,0.36237902314689624
-0.64,-0.96,0.30010279929652456
-0.62,-0.96,0.23309377502852405
-0.6,-0.96,0.16240872268485204
-0.5800000000000001,-0.96,0.08916238776617161
-0.56,-0.96,0.014509908729389922
-0.54,-0.96,-0.06037140023585368
-0.52,-0.96,-0.13430061615525157
-0.5,-0.96,-0.20611183113058199
-0.48,-0.96,-0.27467253940374353
-0.45999999999999996,-0.96,-0.3389014976490859
-0.43999999999999995,-0.96,-0.3977857768265611
-0.42000000000000004,-0.96,-0.4503967366777765
-0.4,-0.96,-0.4959046709376145
-0.38,-0.96,-0.5335918922976747
-0.36,-0.96,-0.5628640507638545
-0.33999999999999997,-0.96,-0.583259506910802
-0.31999999999999995,-0.96,-0.5944566122114253
-0.29999999999999993,-0.96,-0.5962787816263069
-0.28,-0.96,-0.588697278455264
-0.26,-0.96,-0.5718316675322735
-0.24,-0.96,-0.545947929616619
-0.21999999999999997,-0.96,-0.5114542667174252
-0.19999999999999996,-0.96,-0.4688946645041285
-0.17999999999999994,-0.96,-0.4189403133275063
-0.16000000000000003,-0.96,-0.36237902314689635
-0.14,-0.96,-0.3001027992965244
-0.12,-0.96,-0.2330937750285239
-0.09999999999999998,-0.96,-0.16240872268485204
-0.07999999999999996,-0.96,-0.08916238776617157
-0.05999999999999994,-0.96,-0.014509908729389901
-0.040000000000000036,-0.96,0.060371400235853766
-0.020000000000000018,-0.96,0.13430061615525168
0.0,-0.96,0.20611183113058196
0.020000000000000018,-0.96,0.27467253940374353
0.040000000000000036,-0.96,0.338901497649086
0.06000000000000005,-0.96,0.3977857768265612
0.08000000000000007,-0.96,0.45039673667777663
0.10000000000000009,-0.96,0.49590467093761476
0.1200000000000001,-0.96,0.5335918922976747
0.14000000000000012,-0.96,0.5628640507638545
0.15999999999999992,-0.96,0.583259506910802
0.17999999999999994,-0.96,0.5944566122114251
0.19999999999999996,-0.96,0.5962787816263072
0.21999999999999997,-0.96,0.588697278455264
0.24,-0.96,0.5718316675322735
0.26,-0.96,0.5459479296166188
0.28,-0.96,0.5114542667174253
0.30000000000000004,-0.96,0.46889466450412853
0.32000000000000006,-0.96,0.4189403133275063
0.3400000000000001,-0.96,0.36237902314689613
0.3600000000000001,-0.96,0.30010279929652445
0.3800000000000001,-0.96,0.23309377502852388
0.40000000000000013,-0.96,0.16240872268485196
0.41999999999999993,-0.96,0.08916238776617164
0.43999999999999995,-0.96,0.014509908729389873
0.45999999999999996,-0.96,-0.06037140023585378
0.48,-0.96,-0.13430061615525166
0.5,-0.96,-0.20611183113058204
0.52,-0.96,-0.2746725394037434
0.54,-0.96,-0.33890149764908595
0.56,-0.96,-0.397785776826561
0.5800000000000001,-0.96,-0.4503967366777764
0.6000000000000001,-0.96,-0.49590467093761426
0.6200000000000001,-0.96,-0.5335918922976746
0.6400000000000001,-0.96,-0.5628640507638543
0.6600000000000001,-0.96,-0.5832595069108022
0.6799999999999999,-0.96,-0.5944566122114253
0.7,-0.96,-0.596278781626307
0.72,-0.96,-0.5886972784552638
0.74,-0.96,-0.5718316675322735
0.76,-0.96,-0.5459479296166186
0.78,-0.96,-0.5114542667174254
0.8,-0.96,-0.4688946645041287
0.8200000000000001,-0.96,-0.4189403133275063
0.8400000000000001,-0.96,-0.36237902314689613
0.8600000000000001,-0.96,-0.3001027992965243
0.8800000000000001,-0.96,-0.2330937750285239
0.9000000000000001,-0.96,-0.16240872268485196
0.9199999999999999,-0.96,-0.08916238776617157
0.94,-0.96,-0.014509908729389807
0.96,-0.96,0.06037140023585385
0.98,-0.96,0.13430061615525166
1.0,-0.96,0.20611183113058215

-1.0,-0.94,0.25938653321277116
-0.98,-0.94,0.33119774818810144
-0.96,-0.94,0.39778577682656097
-0.94,-0.94,0.45810048613876075
-0.92,-0.94,0.5111906771285869
-0.9,-0.94,0.5562190857695857
-0.88,-0.94,0.5924755871588219
-0.86,-0.94,0.619388394610803
-0.84,-0.94,0.6365330770750794
-0.8200000000000001,-0.94,0.6436392526674525
-0.8,-0.94,0.6405948527538078
-0.78,-0.94,0.6274478893394195
-0.76,-0.94,0.6044056978909478
-0.74,-0.94,0.571831667532273
-0.72,-0.94,0.5302395101809341
-0.7,-0.94,0.48028515900431157
-0.6799999999999999,-0.94,0.42275642396174384
-0.6599999999999999,-0.94,0.3585605675708532
-0.64,-0.94,0.2887099968356696
-0.62,-0.94,0.21430629698339534
-0.6,-0.94,0.13652285880731643
-0.5800000000000001,-0.94,0.05658637359304343
-0.56,-0.94,-0.024242512535853116
-0.54,-0.94,-0.10468907976028431
-0.52,-0.94,-0.18348463765867115
-0.5,-0.94,-0.2593865332127713
-0.48,-0.94,-0.3311977481881015
-0.45999999999999996,-0.94,-0.39778577682656113
-0.43999999999999995,-0.94,-0.45810048613876087
-0.42000000000000004,-0.94,-0.5111906771285868
-0.4,-0.94,-0.5562190857695857
-0.38,-0.94,-0.5924755871588219
-0.36,-0.94,-0.6193883946108029
-0.33999999999999997,-0.94,-0.6365330770750794
-0.31999999999999995,-0.94,-0.6436392526674524
-0.29999999999999993,-0.94,-0.6405948527538078
-0.28,-0.94,-0.6274478893394195
-0.26,-0.94,-0.604405697890948
-0.24,-0.94,-0.571831667532273
-0.21999999999999997,-0.94,-0.530239510180934
-0.19999999999999996,-0.94,-0.4802851590043118
-0.17999999999999994,-0.94,-0.4227564239617439
-0.16000000000000003,-0.94,-0.35856056757085303
-0.14,-0.94,-0.28870999683566945
-0.12,-0.94,-0.21430629698339532
-0.09999999999999998,-0.94,-0.13652285880731643
-0.07999999999999996,-0.94,-0.056586373593043415
-0.05999999999999994,-0.94,0.024242512535853206
-0.040000000000000036,-0.94,0.10468907976028445
-0.020000000000000018,-0.94,0.18348463765867115
0.0,-0.94,0.2593865332127713
0.020000000000000018,-0.94,0.3311977481881016
0.040000000000000036,-0.94,0.39778577682656124
0.06000000000000005,-0.94,0.458100486138761
0.08000000000000007,-0.94,0.5111906771285869
0.10000000000000009,-0.94,0.5562190857695857
0.1200000000000001,-0.94,0.592475587158822
0.14000000000000012,-0.94,0.619388394610803
0.15999999999999992,-0.94,0.6365330770750792
0.17999999999999994,-0.94,0.6436392526674527
0.19999999999999996,-0.94,0.6405948527538079
0.21999999999999997,-0.94,0.6274478893394195
0.24,-0.94,0.6044056978909477
0.26,-0.94,0.571831667532273
0.28,-0.94,0.530239510180934
0.30000000000000004,-0.94,0.4802851590043117
0.32000000000000006,-0.94,0.4227564239617437
0.3400000000000001,-0.94,0.35856056757085314
0.3600000000000001,-0.94,0.28870999683566945
0.3800000000000001,-0.94,0.21430629698339523
0.40000000000000013,-0.94,0.13652285880731652
0.41999999999999993,-0.94,0.05658637359304339
0.43999999999999995,-0.94,-0.0242425125358532
0.45999999999999996,-0.94,-0.10468907976028442
0.48,-0.94,-0.1834846376586712
0.5,-0.94,-0.25938653321277116
0.52,-0.94,-0.33119774818810155
0.54,-0.94,-0.39778577682656097
0.56,-0.94,-0.45810048613876075
0.5800000000000001,-0.94,-0.5111906771285866
0.6000000000000001,-0.94,-0.5562190857695855
0.6200000000000001,-0.94,-0.5924755871588218
0.6400000000000001,-0.94,-0.6193883946108031
0.6600000000000001,-0.94,-0.6365330770750793
0.6799999999999999,-0.94,-0.6436392526674526
0.7,-0.94,-0.6405948527538076
0.72,-0.94,-0.6274478893394194
0.74,-0.94,-0.6044056978909477
0.76,-0.94,-0.5718316675322731
0.78,-0.94,-0.5302395101809342
0.8,-0.94,-0.4802851590043118
0.8200000000000001,-0.94,-0.4227564239617437
0.8400000000000001,-0.94,-0.3585605675708529
0.8600000000000001,-0.94,-0.28870999683566945
0.8800000000000001,-0.94,-0.21430629698339523
0.9000000000000001,-0.94,-0.1365228588073164
0.9199999999999999,-0.94,-0.05658637359304329
0.94,-0.94,0.024242512535853283
0.96,-0.94,0.10468907976028442
0.98,-0.94,0.18348463765867132
1.0,-0.94,0.25938653321277116

-1.0,-0.92,0.3085705547161906
-0.98,-0.92,0.3824997706355888
-0.96,-0.92,0.45039673667777635
-0.94,-0.92,0.5111906771285869
-0.92,-0.92,0.5639228352305701
-0.9,-0.92,0.6077615933497941
-0.88,-0.92,0.6420155880827139
-0.86,-0.92,0.666144613470047
-0.84,-0.92,0.6797681403674538
-0.8200000000000001,-0.92,0.6826713176174618
-0.8,-0.92,0.6748083603805647
-0.78,-0.92,0.6563032721894912
-0.76,-0.92,0.6274478893394186
-0.74,-0.92,0.5886972784552627
-0.72,-0.92,0.5406625598191591
-0.7,-0.92,0.4841012696385491
-0.6799999999999999,-0.92,0.41990541324765845
-0.6599999999999999,-0.92,0.34908739765051705
-0.64,-0.92,0.272764065257724
-0.62,-0.92,0.19213908061446205
-0.6,-0.92,0.10848394789158682
-0.5800000000000001,-0.92,0.0231179585052918
-0.56,-0.92,-0.06261261489663072
-0.54,-0.92,-0.14735574995867048
-0.52,-0.92,-0.22977499681780386
-0.5,-0.92,-0.3085705547161906
-0.48,-0.92,-0.3824997706355889
-0.45999999999999996,-0.92,-0.4503967366777764
-0.43999999999999995,-0.92,-0.5111906771285868
-0.42000000000000004,-0.92,-0.5639228352305701
-0.4,-0.92,-0.6077615933497941
-0.38,-0.92,-0.6420155880827138
-0.36,-0.92,-0.666144613470047
-0.33999999999999997,-0.92,-0.6797681403674535
-0.31999999999999995,-0.92,-0.6826713176174618
-0.29999999999999993,-0.92,-0.6748083603805646
-0.28,-0.92,-0.6563032721894914
-0.26,-0.92,-0.6274478893394188
-0.24,-0.92,-0.5886972784552627
-0.21999999999999997,-0.92,-0.5406625598191593
-0.19999999999999996,-0.92,-0.4841012696385491
-0.17999999999999994,-0.92,-0.41990541324765823
-0.16000000000000003,-0.92,-0.3490873976505169
-0.14,-0.92,-0.27276406525772406
-0.12,-0.92,-0.19213908061446203
-0.09999999999999998,-0.92,-0.10848394789158683
-0.07999999999999996,-0.92,-0.023117958505291743
-0.05999999999999994,-0.92,0.06261261489663085
-0.040000000000000036,-0.92,0.1473557499586705
-0.020000000000000018,-0.92,0.22977499681780392
0.0,-0.92,0.30857055471619077
0.020000000000000018,-0.92,0.382499770635589
0.040000000000000036,-0.92,0.4503967366777765
0.06000000000000005,-0.92,0.5111906771285868
0.08000000000000007,-0.92,0.5639228352305702
0.10000000000000009,-0.92,0.6077615933497942
0.1200000000000001,-0.92,0.6420155880827141
0.14000000000000012,-0.92,0.6661446134700468
0.15999999999999992,-0.92,0.6797681403674538
0.17999999999999994,-0.92,0.6826713176174618
0.19999999999999996,-0.92,0.6748083603805648
0.21999999999999997,-0.92,0.6563032721894911
0.24,-0.92,0.6274478893394186
0.26,-0.92,0.5886972784552627
0.28,-0.92,0.5406625598191591
0.30000000000000004,-0.92,0.48410126963854894
0.32000000000000006,-0.92,0.41990541324765834
0.3400000000000001,-0.92,0.34908739765051694
0.3600000000000001,-0.92,0.2727640652577239
0.3800000000000001,-0.92,0.19213908061446217
0.40000000000000013,-0.92,0.10848394789158677
0.41999999999999993,-0.92,0.02311795850529175
0.43999999999999995,-0.92,-0.06261261489663085
0.45999999999999996,-0.92,-0.14735574995867054
0.48,-0.92,-0.22977499681780378
0.5,-0.92,-0.3085705547161907
0.52,-0.92,-0.3824997706355888
0.54,-0.92,-0.45039673667777635
0.56,-0.92,-0.5111906771285866
0.5800000000000001,-0.92,-0.5639228352305699
0.6000000000000001,-0.92,-0.6077615933497938
0.6200000000000001,-0.92,-0.6420155880827141
0.6400000000000001,-0.92,-0.6661446134700469
0.6600000000000001,-0.92,-0.6797681403674538
0.6799999999999999,-0.92,-0.6826713176174616
0.7,-0.92,-0.6748083603805646
0.72,-0.92,-0.656303272189491
0.74,-0.92,-0.6274478893394189
0.76,-0.92,-0.5886972784552631
0.78,-0.92,-0.5406625598191593
0.8,-0.92,-0.4841012696385488
0.8200000000000001,-0.92,-0.4199054132476582
0.8400000000000001,-0.92,-0.3490873976505169
0.8600000000000001,-0.92,-0.2727640652577239
0.8800000000000001,-0.92,-0.19213908061446203
0.9000000000000001,-0.92,-0.10848394789158668
0.9199999999999999,-0.92,-0.023117958505291646
0.94,-0.92,0.06261261489663086
0.96,-0.92,0.14735574995867065
0.98,-0.92,0.2297749968178038
1.0,-0.92,0.3085705547161906

-1.0,-0.9,0.3528882342406215
-0.98,-0.9,0.42776954320586547
-0.96,-0.9,0.4959046709376145
-0.94,-0.9,0.5562190857695857
-0.92,-0.9,0.607761593349794
-0.9,-0.9,0.6497193375436984
-0.88,-0.9,0.6814306196610194
-0.86,-0.9,0.7023953338393649
-0.84,-0.9,0.7122828540124295
-0.8200000000000001,-0.9,0.7109372480805654
-0.8,-0.9,0.6983797370531447
-0.78,-0.9,0.6748083603805635
-0.76,-0.9,0.6405948527538058
-0.74,-0.9,0.5962787816263044
-0.72,-0.9,0.5425590379128776
-0.7,-0.9,0.48028281406250584
-0.6799999999999999,-0.9,0.4104322433273222
-0.6599999999999999,-0.9,0.3341089109345292
-0.64,-0.9,0.2525164814293096
-0.62,-0.9,0.16694171616591555
-0.6,-0.9,0.07873418031243751
-0.5800000000000001,-0.9,-0.010715040598087245
-0.56,-0.9,-0.09999527891752544
-0.54,-0.9,-0.18769853195415015
-0.52,-0.9,-0.2724416670161899
-0.5,-0.9,-0.3528882342406215
-0.48,-0.9,-0.4277695432058654
-0.45999999999999996,-0.9,-0.49590467093761437
-0.43999999999999995,-0.9,-0.5562190857695856
-0.42000000000000004,-0.9,-0.6077615933497941
-0.4,-0.9,-0.6497193375436983
-0.38,-0.9,-0.6814306196610194
-0.36,-0.9,-0.7023953338393646
-0.33999999999999997,-0.9,-0.7122828540124295
-0.31999999999999995,-0.9,-0.7109372480805655
-0.29999999999999993,-0.9,-0.6983797370531448
-0.28,-0.9,-0.6748083603805636
-0.26,-0.9,-0.6405948527538059
-0.24,-0.9,-0.5962787816263045
-0.21999999999999997,-0.9,-0.5425590379128776
-0.19999999999999996,-0.9,-0.4802828140625056
-0.17999999999999994,-0.9,-0.4104322433273221
-0.16000000000000003,-0.9,-0.33410891093452927
-0.14,-0.9,-0.2525164814293096
-0.12,-0.9,-0.16694171616591563
-0.09999999999999998,-0.9,-0.07873418031243751
-0.07999999999999996,-0.9,0.010715040598087363
-0.05999999999999994,-0.9,0.09999527891752544
-0.040000000000000036,-0.9,0.1876985319541502
-0.020000000000000018,-0.9,0.27244166701619
0.0,-0.9,0.35288823424062166
0.020000000000000018,-0.9,0.4277695432058655
0.040000000000000036,-0.9,0.49590467093761426
0.06000000000000005,-0.9,0.5562190857695859
0.08000000000000007,-0.9,0.6077615933497942
0.10000000000000009,-0.9,0.6497193375436986
0.1200000000000001,-0.9,0.6814306196610193
0.14000000000000012,-0.9,0.7023953338393651
0.15999999999999992,-0.9,0.7122828540124294
0.17999999999999994,-0.9,0.7109372480805657
0.19999999999999996,-0.9,0.6983797370531446
0.21999999999999997,-0.9,0.6748083603805635
0.24,-0.9,0.6405948527538059
0.26,-0.9,0.5962787816263043
0.28,-0.9,0.5425590379128774
0.30000000000000004,-0.9,0.48028281406250584
0.32000000000000006,-0.9,0.41043224332732214
0.3400000000000001,-0.9,0.33410891093452916
0.3600000000000001,-0.9,0.2525164814293097
0.3800000000000001,-0.9,0.16694171616591558
0.40000000000000013,-0.9,0.07873418031243751
0.41999999999999993,-0.9,-0.01071504059808737
0.43999999999999995,-0.9,-0.09999527891752549
0.45999999999999996,-0.9,-0.18769853195415012
0.48,-0.9,-0.27244166701618994
0.5,-0.9,-0.3528882342406215
0.52,-0.9,-0.42776954320586547
0.54,-0.9,-0.49590467093761414
0.56,-0.9,-0.5562190857695855
0.5800000000000001,-0.9,-0.6077615933497938
0.6000000000000001,-0.9,-0.6497193375436985
0.6200000000000001,-0.9,-0.6814306196610193
0.6400000000000001,-0.9,-0.7023953338393649
0.6600000000000001,-0.9,-0.7122828540124292
0.6799999999999999,-0.9,-0.7109372480805655
0.7,-0.9,-0.6983797370531446
0.72,-0.9,-0.6748083603805636
0.74,-0.9,-0.6405948527538061
0.76,-0.9,-0.5962787816263045
0.78,-0.9,-0.5425590379128773
0.8,-0.9,-0.4802828140625056
0.8200000000000001,-0.9,-0.41043224332732214
0.8400000000000001,-0.9,-0.33410891093452916
0.8600000000000001,-0.9,-0.2525164814293096
0.8800000000000001,-0.9,-0.16694171616591547
0.9000000000000001,-0.9,-0.07873418031243738
0.9199999999999999,-0.9,0.010715040598087412
0.94,-0.9,0.09999527891752558
0.96,-0.9,0.18769853195415012
0.98,-0.9,0.2724416670161899
1.0,-0.9,0.3528882342406215

-1.0,-0.88,0.39164065550586463
-0.98,-0.88,0.46629313454264687
-0.96,-0.88,0.5335918922976747
-0.94,-0.88,0.5924755871588216
-0.92,-0.88,0.6420155880827139
-0.9,-0.88,0.6814306196610194
-0.88,-0.88,0.7100990833003494
-0.86,-0.88,0.7275688602034021
-0.84,-0.88,0.7335644415524765
-0.8200000000000001,-0.88,0.7279912734481119
-0.8,-0.88,0.7109372480805638
-0.78,-0.88,0.6826713176174589
-0.76,-0.88,0.6436392526674487
-0.74,-0.88,0.5944566122114205
-0.72,-0.88,0.535899035869651
-0.7,-0.88,0.4688900116016507
-0.6799999999999999,-0.88,0.3944863117493767
-0.6599999999999999,-0.88,0.3138613271061148
-0.64,-0.88,0.22828656184272086
-0.62,-0.88,0.1391115811272852
-0.6,-0.88,0.04774272767624166
-0.5800000000000001,-0.88,-0.044379057110379594
-0.56,-0.88,-0.13580095765560646
-0.54,-0.88,-0.22508119597504467
-0.52,-0.88,-0.3108117693769677
-0.5,-0.88,-0.39164065550586463
-0.48,-0.88,-0.46629313454264676
-0.45999999999999996,-0.88,-0.5335918922976746
-0.43999999999999995,-0.88,-0.5924755871588218
-0.42000000000000004,-0.88,-0.6420155880827139
-0.4,-0.88,-0.6814306196610193
-0.38,-0.88,-0.7100990833003492
-0.36,-0.88,-0.7275688602034018
-0.33999999999999997,-0.88,-0.7335644415524765
-0.31999999999999995,-0.88,-0.727991273448112
-0.29999999999999993,-0.88,-0.7109372480805639
-0.28,-0.88,-0.6826713176174589
-0.26,-0.88,-0.6436392526674487
-0.24,-0.88,-0.5944566122114205
-0.21999999999999997,-0.88,-0.535899035869651
-0.19999999999999996,-0.88,-0.46889001160165067
-0.17999999999999994,-0.88,-0.3944863117493768
-0.16000000000000003,-0.88,-0.31386132710611486
-0.14,-0.88,-0.228286561842721
-0.12,-0.88,-0.13911158112728528
-0.09999999999999998,-0.88,-0.04774272767624156
-0.07999999999999996,-0.88,0.04437905711037958
-0.05999999999999994,-0.88,0.1358009576556066
-0.040000000000000036,-0.88,0.22508119597504483
-0.020000000000000018,-0.88,0.31081176937696786
0.0,-0.88,0.39164065550586474
0.020000000000000018,-0.88,0.4662931345426467
0.040000000000000036,-0.88,0.5335918922976749
0.06000000000000005,-0.88,0.5924755871588219
0.08000000000000007,-0.88,0.6420155880827141
0.10000000000000009,-0.88,0.6814306196610194
0.1200000000000001,-0.88,0.7100990833003495
0.14000000000000012,-0.88,0.7275688602034018
0.15999999999999992,-0.88,0.7335644415524767
0.17999999999999994,-0.88,0.7279912734481117
0.19999999999999996,-0.88,0.7109372480805638
0.21999999999999997,-0.88,0.682671317617459
0.24,-0.88,0.6436392526674487
0.26,-0.88,0.5944566122114203
0.28,-0.88,0.5358990358696512
0.30000000000000004,-0.88,0.46889001160165067
0.32000000000000006,-0.88,0.39448631174937665
0.3400000000000001,-0.88,0.313861327106115
0.3600000000000001,-0.88,0.22828656184272098
0.3800000000000001,-0.88,0.13911158112728525
0.40000000000000013,-0.88,0.047742727676241555
0.41999999999999993,-0.88,-0.04437905711037965
0.43999999999999995,-0.88,-0.13580095765560654
0.45999999999999996,-0.88,-0.22508119597504478
0.48,-0.88,-0.31081176937696775
0.5,-0.88,-0.39164065550586463
0.52,-0.88,-0.4662931345426467
0.54,-0.88,-0.5335918922976745
0.56,-0.88,-0.5924755871588216
0.5800000000000001,-0.88,-0.6420155880827141
0.6000000000000001,-0.88,-0.6814306196610193
0.6200000000000001,-0.88,-0.7100990833003495
0.6400000000000001,-0.88,-0.7275688602034015
0.6600000000000001,-0.88,-0.7335644415524765
0.6799999999999999,-0.88,-0.7279912734481118
0.7,-0.88,-0.7109372480805639
0.72,-0.88,-0.6826713176174591
0.74,-0.88,-0.6436392526674488
0.76,-0.88,-0.5944566122114203
0.78,-0.88,-0.5358990358696509
0.8,-0.88,-0.46889001160165067
0.8200000000000001,-0.88,-0.3944863117493766
0.8400000000000001,-0.88,-0.31386132710611486
0.8600000000000001,-0.88,-0.22828656184272086
0.8800000000000001,-0.88,-0.1391115811272851
0.9000000000000001,-0.88,-0.047742727676241464
0.9199999999999999,-0.88,0.044379057110379705
0.94,-0.88,0.13580095765560649
0.96,-0.88,0.22508119597504475
0.98,-0.88,0.31081176937696775
1.0,-0.88,0.39164065550586463

-1.0,-0.86,0.4242166696789929
-0.98,-0.86,0.49746300459767373
-0.96,-0.86,0.5628640507638543
-0.94,-0.86,0.6193883946108029
-0.92,-0.86,0.666144613470047
-0.9,-0.86,0.7023953338393649
-0.88,-0.86,0.727568860203402
-0.86,-0.86,0.741268191013461
-0.84,-0.86,0.7432772796390839
-0.8200000000000001,-0.86,0.7335644415524742
-0.8,-0.86,0.7122828540124255
-0.78,-0.86,0.6797681403674487
-0.76,-0.86,0.6365330770750737
-0.74,-0.86,0.5832595069107956
-0.72,-0.86,0.5207875859001937
-0.7,-0.86,0.45010253355652213
-0.6799999999999999,-0.86,0.37231909538044333
-0.6599999999999999,-0.86,0.28866396265756844
-0.64,-0.86,0.2004564268040906
-0.62,-0.86,0.1090875733530472
-0.6,-0.86,0.015998343704468242
-0.5800000000000001,-0.86,-0.0773431893812774
-0.56,-0.86,-0.16946497416789866
-0.54,-0.86,-0.2589141950784239
-0.52,-0.86,-0.3442801844647193
-0.5,-0.86,-0.42421666967899274
-0.48,-0.86,-0.49746300459767356
-0.45999999999999996,-0.86,-0.5628640507638544
-0.43999999999999995,-0.86,-0.6193883946108029
-0.42000000000000004,-0.86,-0.6661446134700469
-0.4,-0.86,-0.7023953338393648
-0.38,-0.86,-0.7275688602034017
-0.36,-0.86,-0.7412681910134611
-0.33999999999999997,-0.86,-0.743277279639084
-0.31999999999999995,-0.86,-0.7335644415524741
-0.29999999999999993,-0.86,-0.7122828540124256
-0.28,-0.86,-0.6797681403674488
-0.26,-0.86,-0.6365330770750737
-0.24,-0.86,-0.5832595069107956
-0.21999999999999997,-0.86,-0.5207875859001937
-0.19999999999999996,-0.86,-0.45010253355652224
-0.17999999999999994,-0.86,-0.3723190953804435
-0.16000000000000003,-0.86,-0.2886639626575686
-0.14,-0.86,-0.20045642680409073
-0.12,-0.86,-0.10908757335304713
-0.09999999999999998,-0.86,-0.01599834370446825
-0.07999999999999996,-0.86,0.07734318938127752
-0.05999999999999994,-0.86,0.1694649741678988
-0.040000000000000036,-0.86,0.25891419507842406
-0.020000000000000018,-0.86,0.3442801844647195
0.0,-0.86,0.4242166696789928
0.020000000000000018,-0.86,0.49746300459767384
0.040000000000000036,-0.86,0.5628640507638545
0.06000000000000005,-0.86,0.6193883946108032
0.08000000000000007,-0.86,0.666144613470047
0.10000000000000009,-0.86,0.702395333839365
0.1200000000000001,-0.86,0.727568860203402
0.14000000000000012,-0.86,0.7412681910134612
0.15999999999999992,-0.86,0.7432772796390837
0.17999999999999994,-0.86,0.733564441552474
0.19999999999999996,-0.86,0.7122828540124257
0.21999999999999997,-0.86,0.6797681403674488
0.24,-0.86,0.6365330770750736
0.26,-0.86,0.5832595069107956
0.28,-0.86,0.5207875859001937
0.30000000000000004,-0.86,0.45010253355652213
0.32000000000000006,-0.86,0.37231909538044355
0.3400000000000001,-0.86,0.28866396265756855
0.3600000000000001,-0.86,0.20045642680409073
0.3800000000000001,-0.86,0.10908757335304708