TITLE = "Solution" 
VARIABLES = "x", "y", "sol" 
ZONE STRANDID=1, SOLUTIONTIME= 0.34000000000000014, I= 101, J =101, DATAPACKING=POINT 
-1.0,-1.0,0.5948990889003735
-0.98,-1.0,0.6469105820476614
-0.96,-1.0,0.6887199088704077
-0.94,-1.0,0.7196677113089363
-0.92,-1.0,0.7392659240314704
-0.9,-1.0,0.747205471515971
-0.88,-1.0,0.743361142355752
-0.86,-1.0,0.7277935639181614
-0.84,-1.0,0.70074824621478
-0.8200000000000001,-1.0,0.6626517100618797
-0.8,-1.0,0.6141047605923596
-0.78,-1.0,0.5558730121998959
-0.76,-1.0,0.4888748143425981
-0.74,-1.0,0.41416676862345936
-0.72,-1.0,0.3329270655518931
-0.7,-1.0,0.2464369037755848
-0.6799999999999999,-1.0,0.15606028481246476
-0.6599999999999999,-1.0,0.06322250193195686
-0.64,-1.0,-0.030612337571309926
-0.62,-1.0,-0.12396440222415317
-0.6,-1.0,-0.21536147420117702
-0.5800000000000001,-1.0,-0.30336216707933966
-0.56,-1.0,-0.38657865736288655
-0.54,-1.0,-0.46369857128892455
-0.52,-1.0,-0.5335056817456368
-0.5,-1.0,-0.5948990889003734
-0.48,-1.0,-0.6469105820476614
-0.45999999999999996,-1.0,-0.6887199088704077
-0.43999999999999995,-1.0,-0.7196677113089363
-0.42000000000000004,-1.0,-0.7392659240314704
-0.4,-1.0,-0.7472054715159712
-0.38,-1.0,-0.7433611423557523
-0.36,-1.0,-0.7277935639181615
-0.33999999999999997,-1.0,-0.7007482462147802
-0.31999999999999995,-1.0,-0.6626517100618797
-0.29999999999999993,-1.0,-0.6141047605923597
-0.28,-1.0,-0.5558730121998963
-0.26,-1.0,-0.48887481434259816
-0.24,-1.0,-0.41416676862345925
-0.21999999999999997,-1.0,-0.33292706555189305
-0.19999999999999996,-1.0,-0.24643690377558464
-0.17999999999999994,-1.0,-0.15606028481246464
-0.16000000000000003,-1.0,-0.06322250193195687
-0.14,-1.0,0.030612337571309926
-0.12,-1.0,0.12396440222415314
-0.09999999999999998,-1.0,0.21536147420117702
-0.07999999999999996,-1.0,0.30336216707933966
-0.05999999999999994,-1.0,0.3865786573628863
-0.040000000000000036,-1.0,0.46369857128892455
-0.020000000000000018,-1.0,0.5335056817456365
0.0,-1.0,0.5948990889003734
0.020000000000000018,-1.0,0.6469105820476612
0.040000000000000036,-1.0,0.6887199088704076
0.06000000000000005,-1.0,0.7196677113089359
0.08000000000000007,-1.0,0.7392659240314704
0.10000000000000009,-1.0,0.7472054715159712
0.1200000000000001,-1.0,0.7433611423557522
0.14000000000000012,-1.0,0.7277935639181615
0.15999999999999992,-1.0,0.7007482462147798
0.17999999999999994,-1.0,0.6626517100618797
0.19999999999999996,-1.0,0.6141047605923597
0.21999999999999997,-1.0,0.555873012199896
0.24,-1.0,0.488874814342598
0.26,-1.0,0.4141667686234592
0.28,-1.0,0.33292706555189283
0.30000000000000004,-1.0,0.24643690377558453
0.32000000000000006,-1.0,0.15606028481246456
0.3400000000000001,-1.0,0.06322250193195686
0.3600000000000001,-1.0,-0.030612337571309933
0.3800000000000001,-1.0,-0.12396440222415313
0.40000000000000013,-1.0,-0.21536147420117704
0.41999999999999993,-1.0,-0.3033621670793396
0.43999999999999995,-1.0,-0.3865786573628865
0.45999999999999996,-1.0,-0.4636985712889245
0.48,-1.0,-0.5335056817456365
0.5,-1.0,-0.5948990889003736
0.52,-1.0,-0.6469105820476614
0.54,-1.0,-0.6887199088704073
0.56,-1.0,-0.7196677113089359
0.5800000000000001,-1.0,-0.7392659240314704
0.6000000000000001,-1.0,-0.7472054715159709
0.6200000000000001,-1.0,-0.7433611423557522
0.6400000000000001,-1.0,-0.7277935639181615
0.6600000000000001,-1.0,-0.7007482462147798
0.6799999999999999,-1.0,-0.6626517100618795
0.7,-1.0,-0.6141047605923595
0.72,-1.0,-0.5558730121998958
0.74,-1.0,-0.488874814342598
0.76,-1.0,-0.4141667686234592
0.78,-1.0,-0.332927065551893
0.8,-1.0,-0.24643690377558475
0.8200000000000001,-1.0,-0.15606028481246478
0.8400000000000001,-1.0,-0.06322250193195696
0.8600000000000001,-1.0,0.030612337571309822
0.8800000000000001,-1.0,0.12396440222415303
0.9000000000000001,-1.0,0.21536147420117704
0.9199999999999999,-1.0,0.3033621670793396
0.94,-1.0,0.38657865736288644
0.96,-1.0,0.4636985712889245
0.98,-1.0,0.5335056817456366
1.0,-1.0,0.5948990889003735

-1.0,-0.98,0.6469105820476613
-0.98,-0.98,0.700721437992182
-0.96,-0.98,0.7434814982688687
-0.94,-0.98,0.7745164111835361
-0.92,-0.98,0.7933367376201618
-0.9,-0.98,0.7996456697881216
-0.88,-0.98,0.7933437120583544
-0.86,-0.98,0.7745302500688652
-0.84,-0.98,0.7435019833538457
-0.8200000000000001,-0.98,0.7007482462147797
-0.8,-0.98,0.6469432906261952
-0.78,-0.98,0.5829356528792463
-0.76,-0.98,0.5097347716575124
-0.74,-0.98,0.42849506858594616
-0.72,-0.98,0.34049774231223306
-0.7,-0.98,0.247130563238764
-0.6799999999999999,-0.98,0.14986598755437697
-0.6599999999999999,-0.98,0.05023793572065598
-0.64,-0.98,-0.05018239837006793
-0.62,-0.98,-0.14981132606098416
-0.6,-0.98,-0.2470776396469704
-0.5800000000000001,-0.98,-0.34044739125869633
-0.56,-0.98,-0.428448084136859
-0.54,-0.98,-0.5096918947857043
-0.52,-0.98,-0.582897559778599
-0.5,-0.98,-0.6469105820476614
-0.48,-0.98,-0.7007214379921821
-0.45999999999999996,-0.98,-0.7434814982688688
-0.43999999999999995,-0.98,-0.774516411183536
-0.42000000000000004,-0.98,-0.7933367376201617
-0.4,-0.98,-0.7996456697881219
-0.38,-0.98,-0.7933437120583545
-0.36,-0.98,-0.7745302500688654
-0.33999999999999997,-0.98,-0.7435019833538455
-0.31999999999999995,-0.98,-0.7007482462147798
-0.29999999999999993,-0.98,-0.6469432906261954
-0.28,-0.98,-0.5829356528792464
-0.26,-0.98,-0.5097347716575124
-0.24,-0.98,-0.42849506858594605
-0.21999999999999997,-0.98,-0.34049774231223295
-0.19999999999999996,-0.98,-0.24713056323876378
-0.17999999999999994,-0.98,-0.14986598755437694
-0.16000000000000003,-0.98,-0.050237935720655935
-0.14,-0.98,0.05018239837006794
-0.12,-0.98,0.14981132606098416
-0.09999999999999998,-0.98,0.24707763964697038
-0.07999999999999996,-0.98,0.3404473912586961
-0.05999999999999994,-0.98,0.42844808413685886
-0.040000000000000036,-0.98,0.5096918947857039
-0.020000000000000018,-0.98,0.582897559778599
0.0,-0.98,0.6469105820476613
0.020000000000000018,-0.98,0.700721437992182
0.040000000000000036,-0.98,0.7434814982688684
0.06000000000000005,-0.98,0.7745164111835362
0.08000000000000007,-0.98,0.7933367376201618
0.10000000000000009,-0.98,0.7996456697881217
0.1200000000000001,-0.98,0.7933437120583545
0.14000000000000012,-0.98,0.774530250068865
0.15999999999999992,-0.98,0.7435019833538457
0.17999999999999994,-0.98,0.7007482462147797
0.19999999999999996,-0.98,0.6469432906261953
0.21999999999999997,-0.98,0.5829356528792462
0.24,-0.98,0.5097347716575124
0.26,-0.98,0.42849506858594594
0.28,-0.98,0.34049774231223284
0.30000000000000004,-0.98,0.24713056323876367
0.32000000000000006,-0.98,0.14986598755437688
0.3400000000000001,-0.98,0.050237935720655894
0.3600000000000001,-0.98,-0.05018239837006794
0.3800000000000001,-0.98,-0.14981132606098413
0.40000000000000013,-0.98,-0.24707763964697033
0.41999999999999993,-0.98,-0.3404473912586963
0.43999999999999995,-0.98,-0.428448084136859
0.45999999999999996,-0.98,-0.509691894785704
0.48,-0.98,-0.5828975597785991
0.5,-0.98,-0.6469105820476615
0.52,-0.98,-0.7007214379921819
0.54,-0.98,-0.7434814982688683
0.56,-0.98,-0.774516411183536
0.5800000000000001,-0.98,-0.7933367376201614
0.6000000000000001,-0.98,-0.7996456697881217
0.6200000000000001,-0.98,-0.7933437120583545
0.6400000000000001,-0.98,-0.7745302500688651
0.6600000000000001,-0.98,-0.7435019833538453
0.6799999999999999,-0.98,-0.7007482462147796
0.7,-0.98,-0.646943290626195
0.72,-0.98,-0.5829356528792462
0.74,-0.98,-0.5097347716575122
0.76,-0.98,-0.428495068585946
0.78,-0.98,-0.340497742312233
0.8,-0.98,-0.24713056323876395
0.8200000000000001,-0.98,-0.14986598755437697
0.8400000000000001,-0.98,-0.05023793572065603
0.8600000000000001,-0.98,0.05018239837006781
0.8800000000000001,-0.98,0.1498113260609841
0.9000000000000001,-0.98,0.24707763964697027
0.9199999999999999,-0.98,0.3404473912586961
0.94,-0.98,0.4284480841368589
0.96,-0.98,0.509691894785704
0.98,-0.98,0.582897559778599
1.0,-0.98,0.6469105820476613

-1.0,-0.96,0.6887199088704076
-0.98,-0.96,0.7434814982688686
-0.96,-0.96,0.7865179403053105
-0.94,-0.96,0.8171505245800944
-0.92,-0.96,0.8348961569401874
-0.9,-0.96,0.8394749781625449
-0.88,-0.96,0.8308147775012344
-0.86,-0.96,0.8090521314940384
-0.84,-0.96,0.7745302500688648
-0.8200000000000001,-0.96,0.727793563918161
-0.8,-0.96,0.6695791385016663
-0.78,-0.96,0.6008050500838114
-0.76,-0.96,0.5225559071225943
-0.74,-0.96,0.43606574534628606
-0.72,-0.96,0.34269856627281703
-0.7,-0.96,0.24392682609102528
-0.6799999999999999,-0.96,0.1413082141469552
-0.6599999999999999,-0.96,0.03646108725235222
-0.64,-0.96,-0.06896105276901819
-0.62,-0.96,-0.1732956357928851
-0.6,-0.96,-0.2748972431185034
-0.5800000000000001,-0.96,-0.37216355670448964
-0.56,-0.96,-0.46356062868151376
-0.54,-0.96,-0.5476470726265334
-0.52,-0.96,-0.623096795087729
-0.5,-0.96,-0.6887199088704076
-0.48,-0.96,-0.7434814982688688
-0.45999999999999996,-0.96,-0.7865179403053105
-0.43999999999999995,-0.96,-0.8171505245800943
-0.42000000000000004,-0.96,-0.8348961569401877
-0.4,-0.96,-0.839474978162545
-0.38,-0.96,-0.8308147775012346
-0.36,-0.96,-0.8090521314940382
-0.33999999999999997,-0.96,-0.7745302500688648
-0.31999999999999995,-0.96,-0.7277935639181612
-0.29999999999999993,-0.96,-0.6695791385016663
-0.28,-0.96,-0.6008050500838115
-0.26,-0.96,-0.5225559071225943
-0.24,-0.96,-0.43606574534628584
-0.21999999999999997,-0.96,-0.3426985662728167
-0.19999999999999996,-0.96,-0.2439268260910252
-0.17999999999999994,-0.96,-0.14130821414695513
-0.16000000000000003,-0.96,-0.03646108725235216
-0.14,-0.96,0.06896105276901823
-0.12,-0.96,0.1732956357928851
-0.09999999999999998,-0.96,0.2748972431185033
-0.07999999999999996,-0.96,0.37216355670448953
-0.05999999999999994,-0.96,0.4635606286815135
-0.040000000000000036,-0.96,0.5476470726265332
-0.020000000000000018,-0.96,0.6230967950877289
0.0,-0.96,0.6887199088704076
0.020000000000000018,-0.96,0.7434814982688686
0.040000000000000036,-0.96,0.7865179403053105
0.06000000000000005,-0.96,0.8171505245800943
0.08000000000000007,-0.96,0.8348961569401875
0.10000000000000009,-0.96,0.8394749781625451
0.1200000000000001,-0.96,0.8308147775012343
0.14000000000000012,-0.96,0.8090521314940384
0.15999999999999992,-0.96,0.7745302500688647
0.17999999999999994,-0.96,0.727793563918161
0.19999999999999996,-0.96,0.6695791385016662
0.21999999999999997,-0.96,0.6008050500838114
0.24,-0.96,0.522555907122594
0.26,-0.96,0.43606574534628584
0.28,-0.96,0.3426985662728166
0.30000000000000004,-0.96,0.2439268260910251
0.32000000000000006,-0.96,0.14130821414695505
0.3400000000000001,-0.96,0.03646108725235214
0.3600000000000001,-0.96,-0.06896105276901822
0.3800000000000001,-0.96,-0.17329563579288512
0.40000000000000013,-0.96,-0.27489724311850333
0.41999999999999993,-0.96,-0.37216355670448964
0.43999999999999995,-0.96,-0.4635606286815136
0.45999999999999996,-0.96,-0.5476470726265333
0.48,-0.96,-0.623096795087729
0.5,-0.96,-0.6887199088704076
0.52,-0.96,-0.7434814982688684
0.54,-0.96,-0.7865179403053105
0.56,-0.96,-0.8171505245800941
0.5800000000000001,-0.96,-0.8348961569401876
0.6000000000000001,-0.96,-0.8394749781625449
0.6200000000000001,-0.96,-0.8308147775012344
0.6400000000000001,-0.96,-0.8090521314940382
0.6600000000000001,-0.96,-0.7745302500688647
0.6799999999999999,-0.96,-0.7277935639181609
0.7,-0.96,-0.6695791385016661
0.72,-0.96,-0.6008050500838112
0.74,-0.96,-0.5225559071225941
0.76,-0.96,-0.43606574534628595
0.78,-0.96,-0.34269856627281686
0.8,-0.96,-0.2439268260910252
0.8200000000000001,-0.96,-0.1413082141469552
0.8400000000000001,-0.96,-0.03646108725235229
0.8600000000000001,-0.96,0.06896105276901811
0.8800000000000001,-0.96,0.173295635792885
0.9000000000000001,-0.96,0.27489724311850317
0.9199999999999999,-0.96,0.37216355670448953
0.94,-0.96,0.4635606286815135
0.96,-0.96,0.5476470726265332
0.98,-0.96,0.6230967950877289
1.0,-0.96,0.6887199088704076

-1.0,-0.94,0.7196677113089361
-0.98,-0.94,0.7745164111835361
-0.96,-0.94,0.8171505245800944
-0.94,-0.94,0.8468976860619619
-0.92,-0.94,0.8632887651224778
-0.9,-0.94,0.8660652646533001
-0.88,-0.94,0.8551833975982286
-0.86,-0.94,0.8308147775012338
-0.84,-0.94,0.7933437120583535
-0.8200000000000001,-0.94,0.7433611423557511
-0.8,-0.94,0.681655323375777
-0.78,-0.94,0.609199392745014
-0.76,-0.94,0.5271360237725848
-0.74,-0.94,0.43675940480946507
-0.72,-0.94,0.3394948291250782
-0.7,-0.94,0.23687621718100826
-0.6799999999999999,-0.94,0.13052192578900057
-0.6599999999999999,-0.94,0.02210922565728112
-0.64,-0.94,-0.0866521501704649
-0.62,-0.94,-0.1940469698265374
-0.6,-0.94,-0.29838155285040435
-0.5800000000000001,-0.94,-0.3980104805413207
-0.56,-0.94,-0.49136254519416395
-0.54,-0.94,-0.5769655289835385
-0.52,-0.94,-0.6534694217183419
-0.5,-0.94,-0.7196677113089361
-0.48,-0.94,-0.7745164111835361
-0.45999999999999996,-0.94,-0.8171505245800943
-0.43999999999999995,-0.94,-0.8468976860619621
-0.42000000000000004,-0.94,-0.8632887651224777
-0.4,-0.94,-0.8660652646533002
-0.38,-0.94,-0.8551833975982284
-0.36,-0.94,-0.8308147775012339
-0.33999999999999997,-0.94,-0.7933437120583537
-0.31999999999999995,-0.94,-0.7433611423557512
-0.29999999999999993,-0.94,-0.6816553233757771
-0.28,-0.94,-0.609199392745014
-0.26,-0.94,-0.5271360237725847
-0.24,-0.94,-0.43675940480946485
-0.21999999999999997,-0.94,-0.3394948291250781
-0.19999999999999996,-0.94,-0.23687621718100815
-0.17999999999999994,-0.94,-0.1305219257890005
-0.16000000000000003,-0.94,-0.02210922565728106
-0.14,-0.94,0.08665215017046494
-0.12,-0.94,0.19404696982653735
-0.09999999999999998,-0.94,0.29838155285040424
-0.07999999999999996,-0.94,0.39801048054132054
-0.05999999999999994,-0.94,0.4913625451941638
-0.040000000000000036,-0.94,0.5769655289835385
-0.020000000000000018,-0.94,0.6534694217183419
0.0,-0.94,0.7196677113089361
0.020000000000000018,-0.94,0.774516411183536
0.040000000000000036,-0.94,0.8171505245800944
0.06000000000000005,-0.94,0.8468976860619621
0.08000000000000007,-0.94,0.8632887651224778
0.10000000000000009,-0.94,0.8660652646533
0.1200000000000001,-0.94,0.8551833975982285
0.14000000000000012,-0.94,0.8308147775012338
0.15999999999999992,-0.94,0.7933437120583536
0.17999999999999994,-0.94,0.7433611423557511
0.19999999999999996,-0.94,0.6816553233757767
0.21999999999999997,-0.94,0.6091993927450139
0.24,-0.94,0.5271360237725847
0.26,-0.94,0.4367594048094647
0.28,-0.94,0.33949482912507806
0.30000000000000004,-0.94,0.236876217181008
0.32000000000000006,-0.94,0.13052192578900043
0.3400000000000001,-0.94,0.022109225657281024
0.3600000000000001,-0.94,-0.08665215017046496
0.3800000000000001,-0.94,-0.19404696982653732
0.40000000000000013,-0.94,-0.29838155285040435
0.41999999999999993,-0.94,-0.39801048054132065
0.43999999999999995,-0.94,-0.49136254519416384
0.45999999999999996,-0.94,-0.5769655289835386
0.48,-0.94,-0.653469421718342
0.5,-0.94,-0.719667711308936
0.52,-0.94,-0.774516411183536
0.54,-0.94,-0.8171505245800942
0.56,-0.94,-0.8468976860619621
0.5800000000000001,-0.94,-0.8632887651224777
0.6000000000000001,-0.94,-0.8660652646533001
0.6200000000000001,-0.94,-0.8551833975982284
0.6400000000000001,-0.94,-0.8308147775012339
0.6600000000000001,-0.94,-0.7933437120583535
0.6799999999999999,-0.94,-0.743361142355751
0.7,-0.94,-0.6816553233757767
0.72,-0.94,-0.6091993927450138
0.74,-0.94,-0.5271360237725848
0.76,-0.94,-0.43675940480946496
0.78,-0.94,-0.3394948291250781
0.8,-0.94,-0.23687621718100824
0.8200000000000001,-0.94,-0.1305219257890006
0.8400000000000001,-0.94,-0.022109225657281184
0.8600000000000001,-0.94,0.08665215017046483
0.8800000000000001,-0.94,0.19404696982653716
0.9000000000000001,-0.94,0.29838155285040424
0.9199999999999999,-0.94,0.39801048054132054
0.94,-0.94,0.4913625451941637
0.96,-0.94,0.5769655289835385
0.98,-0.94,0.6534694217183419
1.0,-0.94,0.7196677113089361

-1.0,-0.92,0.7392659240314705
-0.98,-0.92,0.7933367376201619
-0.96,-0.92,0.8348961569401874
-0.94,-0.92,0.8632887651224777
-0.92,-0.92,0.8780667937750748
-0.9,-0.92,0.8789971845581608
-0.88,-0.92,0.8660652646532991
-0.86,-0.92,0.8394749781625435
-0.84,-0.92,0.79964566978812
-0.8200000000000001,-0.92,0.7472054715159694
-0.8,-0.92,0.6829813965990987
-0.78,-0.92,0.6079862970645503
-0.76,-0.92,0.5234028904318848
-0.74,-0.92,0.43056510755137717
-0.72,-0.92,0.33093705571765647
-0.7,-0.92,0.22608992882305365
-0.6799999999999999,-0.92,0.11767722869133429
-0.6599999999999999,-0.92,0.007408688366183512
-0.64,-0.92,-0.10297669140023803
-0.62,-0.92,-0.21173806722798413
-0.6,-0.92,-0.3171602072493547
-0.5800000000000001,-0.92,-0.41758054134007855
-0.56,-0.92,-0.5114153808433454
-0.54,-0.92,-0.5971848942859725
-0.52,-0.92,-0.6735364452047456
-0.5,-0.92,-0.7392659240314705
-0.48,-0.92,-0.7933367376201618
-0.45999999999999996,-0.92,-0.8348961569401876
-0.43999999999999995,-0.92,-0.8632887651224777
-0.42000000000000004,-0.92,-0.8780667937750747
-0.4,-0.92,-0.8789971845581608
-0.38,-0.92,-0.8660652646532991
-0.36,-0.92,-0.8394749781625436
-0.33999999999999997,-0.92,-0.79964566978812
-0.31999999999999995,-0.92,-0.7472054715159694
-0.29999999999999993,-0.92,-0.6829813965990987
-0.28,-0.92,-0.6079862970645502
-0.26,-0.92,-0.5234028904318847
-0.24,-0.92,-0.43056510755137717
-0.21999999999999997,-0.92,-0.3309370557176563
-0.19999999999999996,-0.92,-0.22608992882305354
-0.17999999999999994,-0.92,-0.11767722869133418
-0.16000000000000003,-0.92,-0.00740868836618346
-0.14,-0.92,0.10297669140023803
-0.12,-0.92,0.21173806722798405
-0.09999999999999998,-0.92,0.31716020724935456
-0.07999999999999996,-0.92,0.4175805413400785
-0.05999999999999994,-0.92,0.5114153808433455
-0.040000000000000036,-0.92,0.5971848942859724
-0.020000000000000018,-0.92,0.6735364452047458
0.0,-0.92,0.7392659240314703
0.020000000000000018,-0.92,0.7933367376201619
0.040000000000000036,-0.92,0.8348961569401876
0.06000000000000005,-0.92,0.8632887651224777
0.08000000000000007,-0.92,0.8780667937750746
0.10000000000000009,-0.92,0.8789971845581608
0.1200000000000001,-0.92,0.866065264653299
0.14000000000000012,-0.92,0.8394749781625436
0.15999999999999992,-0.92,0.7996456697881198
0.17999999999999994,-0.92,0.7472054715159692
0.19999999999999996,-0.92,0.6829813965990986
0.21999999999999997,-0.92,0.6079862970645501
0.24,-0.92,0.5234028904318845
0.26,-0.92,0.4305651075513771
0.28,-0.92,0.3309370557176562
0.30000000000000004,-0.92,0.2260899288230535
0.32000000000000006,-0.92,0.11767722869133411
0.3400000000000001,-0.92,0.007408688366183398
0.3600000000000001,-0.92,-0.102976691400238
0.3800000000000001,-0.92,-0.2117380672279841
0.40000000000000013,-0.92,-0.3171602072493546
0.41999999999999993,-0.92,-0.4175805413400785
0.43999999999999995,-0.92,-0.5114153808433455
0.45999999999999996,-0.92,-0.5971848942859727
0.48,-0.92,-0.6735364452047455
0.5,-0.92,-0.7392659240314703
0.52,-0.92,-0.7933367376201617
0.54,-0.92,-0.8348961569401876
0.56,-0.92,-0.8632887651224777
0.5800000000000001,-0.92,-0.8780667937750747
0.6000000000000001,-0.92,-0.8789971845581607
0.6200000000000001,-0.92,-0.8660652646532991
0.6400000000000001,-0.92,-0.8394749781625435
0.6600000000000001,-0.92,-0.7996456697881199
0.6799999999999999,-0.92,-0.747205471515969
0.7,-0.92,-0.6829813965990985
0.72,-0.92,-0.6079862970645502
0.74,-0.92,-0.5234028904318848
0.76,-0.92,-0.4305651075513771
0.78,-0.92,-0.33093705571765636
0.8,-0.92,-0.2260899288230536
0.8200000000000001,-0.92,-0.1176772286913343
0.8400000000000001,-0.92,-0.00740868836618354
0.8600000000000001,-0.92,0.10297669140023785
0.8800000000000001,-0.92,0.21173806722798402
0.9000000000000001,-0.92,0.31716020724935445
0.9199999999999999,-0.92,0.4175805413400784
0.94,-0.92,0.5114153808433454
0.96,-0.92,0.5971848942859725
0.98,-0.92,0.6735364452047458
1.0,-0.92,0.7392659240314705

-1.0,-0.9,0.7472054715159713
-0.98,-0.9,0.7996456697881216
-0.96,-0.9,0.839474978162545
-0.94,-0.9,0.8660652646533004
-0.92,-0.9,0.8789971845581608
-0.9,-0.9,0.8780667937750734
-0.88,-0.9,0.8632887651224755
-0.86,-0.9,0.8348961569401852
-0.84,-0.9,0.7933367376201592
-0.8200000000000001,-0.9,0.7392659240314676
-0.8,-0.9,0.6735364452047428
-0.78,-0.9,0.5971848942859695
-0.76,-0.9,0.5114153808433428
-0.74,-0.9,0.4175805413400763
-0.72,-0.9,0.31716020724935273
-0.7,-0.9,0.2117380672279826
-0.6799999999999999,-0.9,0.10297669140023667
-0.6599999999999999,-0.9,-0.0074086883661848
-0.64,-0.9,-0.11767722869133568
-0.62,-0.9,-0.22608992882305526
-0.6,-0.9,-0.3309370557176583
-0.5800000000000001,-0.9,-0.4305651075513793
-0.56,-0.9,-0.523402890431887
-0.54,-0.9,-0.6079862970645525
-0.52,-0.9,-0.6829813965991008
-0.5,-0.9,-0.7472054715159713
-0.48,-0.9,-0.7996456697881217
-0.45999999999999996,-0.9,-0.8394749781625449
-0.43999999999999995,-0.9,-0.8660652646533002
-0.42000000000000004,-0.9,-0.8789971845581609
-0.4,-0.9,-0.8780667937750732
-0.38,-0.9,-0.8632887651224755
-0.36,-0.9,-0.8348961569401852
-0.33999999999999997,-0.9,-0.7933367376201593
-0.31999999999999995,-0.9,-0.7392659240314676
-0.29999999999999993,-0.9,-0.6735364452047428
-0.28,-0.9,-0.5971848942859694
-0.26,-0.9,-0.5114153808433428
-0.24,-0.9,-0.4175805413400762
-0.21999999999999997,-0.9,-0.3171602072493527
-0.19999999999999996,-0.9,-0.21173806722798244
-0.17999999999999994,-0.9,-0.10297669140023659
-0.16000000000000003,-0.9,0.007408688366184848
-0.14,-0.9,0.11767722869133565
-0.12,-0.9,0.22608992882305515
-0.09999999999999998,-0.9,0.3309370557176582
-0.07999999999999996,-0.9,0.4305651075513793
-0.05999999999999994,-0.9,0.5234028904318869
-0.040000000000000036,-0.9,0.6079862970645526
-0.020000000000000018,-0.9,0.6829813965991008
0.0,-0.9,0.7472054715159713
0.020000000000000018,-0.9,0.7996456697881217
0.040000000000000036,-0.9,0.8394749781625449
0.06000000000000005,-0.9,0.8660652646533
0.08000000000000007,-0.9,0.8789971845581608
0.10000000000000009,-0.9,0.8780667937750732
0.1200000000000001,-0.9,0.8632887651224755
0.14000000000000012,-0.9,0.834896156940185
0.15999999999999992,-0.9,0.7933367376201591
0.17999999999999994,-0.9,0.7392659240314675
0.19999999999999996,-0.9,0.6735364452047428
0.21999999999999997,-0.9,0.5971848942859693
0.24,-0.9,0.5114153808433426
0.26,-0.9,0.4175805413400761
0.28,-0.9,0.31716020724935257
0.30000000000000004,-0.9,0.21173806722798238
0.32000000000000006,-0.9,0.10297669140023649
0.3400000000000001,-0.9,-0.007408688366184876
0.3600000000000001,-0.9,-0.11767722869133568
0.3800000000000001,-0.9,-0.22608992882305523
0.40000000000000013,-0.9,-0.3309370557176583
0.41999999999999993,-0.9,-0.4305651075513793
0.43999999999999995,-0.9,-0.5234028904318871
0.45999999999999996,-0.9,-0.6079862970645524
0.48,-0.9,-0.6829813965991008
0.5,-0.9,-0.7472054715159712
0.52,-0.9,-0.7996456697881217
0.54,-0.9,-0.839474978162545
0.56,-0.9,-0.8660652646533001
0.5800000000000001,-0.9,-0.8789971845581607
0.6000000000000001,-0.9,-0.8780667937750734
0.6200000000000001,-0.9,-0.8632887651224755
0.6400000000000001,-0.9,-0.8348961569401852
0.6600000000000001,-0.9,-0.793336737620159
0.6799999999999999,-0.9,-0.7392659240314674
0.7,-0.9,-0.6735364452047427
0.72,-0.9,-0.5971848942859695
0.74,-0.9,-0.5114153808433427
0.76,-0.9,-0.41758054134007616
0.78,-0.9,-0.3171602072493526
0.8,-0.9,-0.2117380672279825
0.8200000000000001,-0.9,-0.10297669140023663
0.8400000000000001,-0.9,0.007408688366184685
0.8600000000000001,-0.9,0.11767722869133554
0.8800000000000001,-0.9,0.2260899288230551
0.9000000000000001,-0.9,0.3309370557176581
0.9199999999999999,-0.9,0.43056510755137917
0.94,-0.9,0.5234028904318869
0.96,-0.9,0.6079862970645525
0.98,-0.9,0.682981396599101
1.0,-0.9,0.7472054715159713

-1.0,-0.88,0.7433611423557521
-0.98,-0.88,0.7933437120583545
-0.96,-0.88,0.8308147775012347
-0.94,-0.88,0.8551833975982285
-0.92,-0.88,0.8660652646532991
-0.9,-0.88,0.8632887651224755
-0.88,-0.88,0.8468976860619596
-0.86,-0.88,0.8171505245800914
-0.84,-0.88,0.7745164111835329
-0.8200000000000001,-0.88,0.7196677113089328
-0.8,-0.88,0.6534694217183384
-0.78,-0.88,0.5769655289835353
-0.76,-0.88,0.4913625451941612
-0.74,-0.88,0.39801048054131843
-0.72,-0.88,0.2983815528504026
-0.7,-0.88,0.1940469698265359
-0.6799999999999999,-0.88,0.08665215017046357
-0.6599999999999999,-0.88,-0.02210922565728244
-0.64,-0.88,-0.13052192578900199
-0.62,-0.88,-0.2368762171810098
-0.6,-0.88,-0.3394948291250799
-0.5800000000000001,-0.88,-0.4367594048094666
-0.56,-0.88,-0.5271360237725862
-0.54,-0.88,-0.6091993927450152
-0.52,-0.88,-0.681655323375778
-0.5,-0.88,-0.7433611423557522
-0.48,-0.88,-0.7933437120583545
-0.45999999999999996,-0.88,-0.8308147775012347
-0.43999999999999995,-0.88,-0.8551833975982285
-0.42000000000000004,-0.88,-0.8660652646532991
-0.4,-0.88,-0.8632887651224755
-0.38,-0.88,-0.8468976860619596
-0.36,-0.88,-0.8171505245800915
-0.33999999999999997,-0.88,-0.7745164111835328
-0.31999999999999995,-0.88,-0.7196677113089328
-0.29999999999999993,-0.88,-0.6534694217183386
-0.28,-0.88,-0.5769655289835354
-0.26,-0.88,-0.4913625451941613
-0.24,-0.88,-0.3980104805413184
-0.21999999999999997,-0.88,-0.29838155285040247
-0.19999999999999996,-0.88,-0.19404696982653583
-0.17999999999999994,-0.88,-0.0866521501704635
-0.16000000000000003,-0.88,0.022109225657282454
-0.14,-0.88,0.13052192578900193
-0.12,-0.88,0.23687621718100974
-0.09999999999999998,-0.88,0.33949482912507983
-0.07999999999999996,-0.88,0.43675940480946657
-0.05999999999999994,-0.88,0.5271360237725864
-0.040000000000000036,-0.88,0.6091993927450153
-0.020000000000000018,-0.88,0.6816553233757779
0.0,-0.88,0.7433611423557522
0.020000000000000018,-0.88,0.7933437120583545
0.040000000000000036,-0.88,0.8308147775012344
0.06000000000000005,-0.88,0.8551833975982285
0.08000000000000007,-0.88,0.8660652646532989
0.10000000000000009,-0.88,0.8632887651224755
0.1200000000000001,-0.88,0.8468976860619594
0.14000000000000012,-0.88,0.8171505245800913
0.15999999999999992,-0.88,0.7745164111835328
0.17999999999999994,-0.88,0.7196677113089326
0.19999999999999996,-0.88,0.6534694217183383
0.21999999999999997,-0.88,0.5769655289835353
0.24,-0.88,0.491362545194161
0.26,-0.88,0.39801048054131827
0.28,-0.88,0.29838155285040235
0.30000000000000004,-0.88,0.19404696982653563
0.32000000000000006,-0.88,0.0866521501704634
0.3400000000000001,-0.88,-0.02210922565728251
0.3600000000000001,-0.88,-0.13052192578900199
0.3800000000000001,-0.88,-0.23687621718100976
0.40000000000000013,-0.88,-0.33949482912507983
0.41999999999999993,-0.88,-0.4367594048094666
0.43999999999999995,-0.88,-0.5271360237725862
0.45999999999999996,-0.88,-0.6091993927450152
0.48,-0.88,-0.681655323375778
0.5,-0.88,-0.7433611423557522
0.52,-0.88,-0.7933437120583544
0.54,-0.88,-0.8308147775012344
0.56,-0.88,-0.8551833975982284
0.5800000000000001,-0.88,-0.8660652646532991
0.6000000000000001,-0.88,-0.8632887651224757
0.6200000000000001,-0.88,-0.8468976860619594
0.6400000000000001,-0.88,-0.8171505245800914
0.6600000000000001,-0.88,-0.7745164111835328
0.6799999999999999,-0.88,-0.7196677113089326
0.7,-0.88,-0.6534694217183387
0.72,-0.88,-0.5769655289835351
0.74,-0.88,-0.491362545194161
0.76,-0.88,-0.39801048054131827
0.78,-0.88,-0.2983815528504024
0.8,-0.88,-0.19404696982653577
0.8200000000000001,-0.88,-0.08665215017046364
0.8400000000000001,-0.88,0.02210922565728233
0.8600000000000001,-0.88,0.13052192578900185
0.8800000000000001,-0.88,0.23687621718100957
0.9000000000000001,-0.88,0.3394948291250797
0.9199999999999999,-0.88,0.43675940480946646
0.94,-0.88,0.5271360237725863
0.96,-0.88,0.6091993927450153
0.98,-0.88,0.681655323375778
1.0,-0.88,0.7433611423557521

-1.0,-0.86,0.7277935639181614
-0.98,-0.86,0.7745302500688654
-0.96,-0.86,0.8090521314940384
-0.94,-0.86,0.8308147775012339
-0.92,-0.86,0.8394749781625435
-0.9,-0.86,0.8348961569401853
-0.88,-0.86,0.8171505245800914
-0.86,-0.86,0.7865179403053073
-0.84,-0.86,0.7434814982688651
-0.8200000000000001,-0.86,0.6887199088704038
-0.8,-0.86,0.6230967950877251
-0.78,-0.86,0.5476470726265301
-0.76,-0.86,0.46356062868151104
-0.74,-0.86,0.3721635567044876
-0.72,-0.86,0.2748972431185017
-0.7,-0.86,0.17329563579288365
-0.6799999999999999,-0.86,0.06896105276901687
-0.6599999999999999,-0.86,-0.036461087252353495
-0.64,-0.86,-0.14130821414695652
-0.62,-0.86,-0.24392682609102656
-0.6,-0.86,-0.34269856627281803
-0.5800000000000001,-0.86,-0.43606574534628684
-0.56,-0.86,-0.5225559071225949
-0.54,-0.86,-0.6008050500838119
-0.52,-0.86,-0.6695791385016668
-0.5,-0.86,-0.7277935639181615
-0.48,-0.86,-0.7745302500688653
-0.45999999999999996,-0.86,-0.8090521314940384
-0.43999999999999995,-0.86,-0.8308147775012339
-0.42000000000000004,-0.86,-0.8394749781625435
-0.4,-0.86,-0.8348961569401854
-0.38,-0.86,-0.8171505245800914
-0.36,-0.86,-0.7865179403053072
-0.33999999999999997,-0.86,-0.7434814982688651
-0.31999999999999995,-0.86,-0.6887199088704039
-0.29999999999999993,-0.86,-0.6230967950877254
-0.28,-0.86,-0.5476470726265302
-0.26,-0.86,-0.4635606286815111
-0.24,-0.86,-0.3721635567044875
-0.21999999999999997,-0.86,-0.2748972431185016
-0.19999999999999996,-0.86,-0.17329563579288357
-0.17999999999999994,-0.86,-0.06896105276901679
-0.16000000000000003,-0.86,0.036461087252353516
-0.14,-0.86,0.14130821414695652
-0.12,-0.86,0.24392682609102653
-0.09999999999999998,-0.86,0.34269856627281803
-0.07999999999999996,-0.86,0.43606574534628684
-0.05999999999999994,-0.86,0.5225559071225949
-0.040000000000000036,-0.86,0.6008050500838119
-0.020000000000000018,-0.86,0.6695791385016668
0.0,-0.86,0.7277935639181614
0.020000000000000018,-0.86,0.7745302500688652
0.040000000000000036,-0.86,0.8090521314940384
0.06000000000000005,-0.86,0.8308147775012337
0.08000000000000007,-0.86,0.8394749781625434
0.10000000000000009,-0.86,0.8348961569401853
0.1200000000000001,-0.86,0.8171505245800913
0.14000000000000012,-0.86,0.7865179403053072
0.15999999999999992,-0.86,0.7434814982688649
0.17999999999999994,-0.86,0.6887199088704038
0.19999999999999996,-0.86,0.6230967950877251
0.21999999999999997,-0.86,0.54764707262653
0.24,-0.86,0.4635606286815109
0.26,-0.86,0.3721635567044874
0.28,-0.86,0.27489724311850144
0.30000000000000004,-0.86,0.17329563579288346
0.32000000000000006,-0.86,0.06896105276901675
0.3400000000000001,-0.86,-0.03646108725235356
0.3600000000000001,-0.86,-0.14130821414695652
0.3800000000000001,-0.86,-0.24392682609102653
0.40000000000000013,-0.86,-0.34269856627281803
0.41999999999999993,-0.86,-0.4360657453462868
0.43999999999999995,-0.86,-0.5225559071225949