TITLE = "Solution" 
VARIABLES = "x", "y", "sol" 
ZONE STRANDID=1, SOLUTIONTIME= 0.6100000000000003, I= 101, J =101, DATAPACKING=POINT 
-1.0,-1.0,0.21480211760966927
-0.98,-1.0,0.151551720042626
-0.96,-1.0,0.08591126131790128
-0.94,-1.0,0.01891593068129325
-0.92,-1.0,-0.04837771548198812
-0.9,-1.0,-0.11490841617267201
-0.88,-1.0,-0.17962694249735237
-0.86,-1.0,-0.24151264463491512
-0.84,-1.0,-0.2995895480939248
-0.8200000000000001,-1.0,-0.35294174541337175
-0.8,-1.0,-0.40072784057047106
-0.78,-1.0,-0.4421942182985653
-0.76,-1.0,-0.4766869290500692
-0.74,-1.0,-0.5036620021714848
-0.72,-1.0,-0.5226940246455599
-0.7,-1.0,-0.5334828501086989
-0.6799999999999999,-1.0,-0.535858332338416
-0.6599999999999999,-1.0,-0.5297830085609049
-0.64,-1.0,-0.5153526902613593
-0.62,-1.0,-0.4927949521796178
-0.6,-1.0,-0.46246554332056833
-0.5800000000000001,-1.0,-0.4248427765798292
-0.56,-1.0,-0.38051998546365284
-0.54,-1.0,-0.33019616686509334
-0.52,-1.0,-0.2746649574654426
-0.5,-1.0,-0.21480211760966936
-0.48,-1.0,-0.15155172004262607
-0.45999999999999996,-1.0,-0.08591126131790128
-0.43999999999999995,-1.0,-0.01891593068129317
-0.42000000000000004,-1.0,0.04837771548198816
-0.4,-1.0,0.1149084161726721
-0.38,-1.0,0.17962694249735245
-0.36,-1.0,0.24151264463491526
-0.33999999999999997,-1.0,0.29958954809392485
-0.31999999999999995,-1.0,0.35294174541337187
-0.29999999999999993,-1.0,0.4007278405704711
-0.28,-1.0,0.44219421829856526
-0.26,-1.0,0.4766869290500692
-0.24,-1.0,0.5036620021714849
-0.21999999999999997,-1.0,0.5226940246455599
-0.19999999999999996,-1.0,0.5334828501086989
-0.17999999999999994,-1.0,0.5358583323384158
-0.16000000000000003,-1.0,0.5297830085609049
-0.14,-1.0,0.5153526902613594
-0.12,-1.0,0.49279495217961755
-0.09999999999999998,-1.0,0.4624655433205682
-0.07999999999999996,-1.0,0.4248427765798292
-0.05999999999999994,-1.0,0.3805199854636528
-0.040000000000000036,-1.0,0.33019616686509334
-0.020000000000000018,-1.0,0.27466495746544267
0.0,-1.0,0.2148021176096693
0.020000000000000018,-1.0,0.15155172004262601
0.040000000000000036,-1.0,0.0859112613179012
0.06000000000000005,-1.0,0.01891593068129314
0.08000000000000007,-1.0,-0.048377715481988146
0.10000000000000009,-1.0,-0.11490841617267211
0.1200000000000001,-1.0,-0.17962694249735248
0.14000000000000012,-1.0,-0.2415126446349152
0.15999999999999992,-1.0,-0.2995895480939247
0.17999999999999994,-1.0,-0.3529417454133718
0.19999999999999996,-1.0,-0.4007278405704711
0.21999999999999997,-1.0,-0.44219421829856526
0.24,-1.0,-0.47668692905006915
0.26,-1.0,-0.5036620021714849
0.28,-1.0,-0.5226940246455598
0.30000000000000004,-1.0,-0.5334828501086987
0.32000000000000006,-1.0,-0.535858332338416
0.3400000000000001,-1.0,-0.5297830085609047
0.3600000000000001,-1.0,-0.5153526902613594
0.3800000000000001,-1.0,-0.4927949521796176
0.40000000000000013,-1.0,-0.46246554332056833
0.41999999999999993,-1.0,-0.42484277657982905
0.43999999999999995,-1.0,-0.3805199854636526
0.45999999999999996,-1.0,-0.33019616686509345
0.48,-1.0,-0.27466495746544267
0.5,-1.0,-0.2148021176096692
0.52,-1.0,-0.151551720042626
0.54,-1.0,-0.08591126131790117
0.56,-1.0,-0.01891593068129311
0.5800000000000001,-1.0,0.04837771548198817
0.6000000000000001,-1.0,0.11490841617267213
0.6200000000000001,-1.0,0.1796269424973525
0.6400000000000001,-1.0,0.24151264463491523
0.6600000000000001,-1.0,0.2995895480939248
0.6799999999999999,-1.0,0.35294174541337187
0.7,-1.0,0.400727840570471
0.72,-1.0,0.4421942182985655
0.74,-1.0,0.47668692905006904
0.76,-1.0,0.5036620021714849
0.78,-1.0,0.5226940246455599
0.8,-1.0,0.5334828501086989
0.8200000000000001,-1.0,0.5358583323384161
0.8400000000000001,-1.0,0.5297830085609047
0.8600000000000001,-1.0,0.5153526902613593
0.8800000000000001,-1.0,0.49279495217961744
0.9000000000000001,-1.0,0.46246554332056816
0.9199999999999999,-1.0,0.424842776579829
0.94,-1.0,0.38051998546365284
0.96,-1.0,0.33019616686509334
0.98,-1.0,0.27466495746544267
1.0,-1.0,0.21480211760966927

-1.0,-0.98,0.15155172004262601
-0.98,-0.98,0.09560312911999562
-0.96,-0.98,0.03814681974060172
-0.94,-0.98,-0.01991108777390709
-0.92,-0.98,-0.07765498553991404
-0.9,-0.98,-0.13417421779511676
-0.88,-0.98,-0.1885774424838978
-0.86,-0.98,-0.24000668825400423
-0.84,-0.98,-0.2876508851772987
-0.8200000000000001,-0.98,-0.33075865580703784
-0.8,-0.98,-0.3686501648490562
-0.78,-0.98,-0.400727840570471
-0.76,-0.98,-0.42648579886288074
-0.74,-0.98,-0.4455178213369559
-0.72,-0.98,-0.4575237616291008
-0.7,-0.98,-0.4623142788889072
-0.6799999999999999,-0.98,-0.459813823797472
-0.6599999999999999,-0.98,-0.45006183002528677
-0.64,-0.98,-0.4332120923396975
-0.62,-0.98,-0.40953034116955117
-0.6,-0.98,-0.37939005187759367
-0.5800000000000001,-0.98,-0.3432665548308949
-0.56,-0.98,-0.30172953915701245
-0.54,-0.98,-0.25543406840613425
-0.52,-0.98,-0.205110249807575
-0.5,-0.98,-0.15155172004262607
-0.48,-0.98,-0.09560312911999562
-0.45999999999999996,-0.98,-0.038146819740601655
-0.43999999999999995,-0.98,0.01991108777390711
-0.42000000000000004,-0.98,0.07765498553991407
-0.4,-0.98,0.13417421779511682
-0.38,-0.98,0.1885774424838979
-0.36,-0.98,0.24000668825400429
-0.33999999999999997,-0.98,0.2876508851772988
-0.31999999999999995,-0.98,0.3307586558070379
-0.29999999999999993,-0.98,0.3686501648490561
-0.28,-0.98,0.4007278405704709
-0.26,-0.98,0.42648579886288085
-0.24,-0.98,0.44551782133695583
-0.21999999999999997,-0.98,0.4575237616291009
-0.19999999999999996,-0.98,0.4623142788889072
-0.17999999999999994,-0.98,0.459813823797472
-0.16000000000000003,-0.98,0.45006183002528677
-0.14,-0.98,0.4332120923396974
-0.12,-0.98,0.40953034116955106
-0.09999999999999998,-0.98,0.3793900518775937
-0.07999999999999996,-0.98,0.34326655483089485
-0.05999999999999994,-0.98,0.30172953915701245
-0.040000000000000036,-0.98,0.25543406840613425
-0.020000000000000018,-0.98,0.20511024980757497
0.0,-0.98,0.15155172004262601
0.020000000000000018,-0.98,0.09560312911999555
0.040000000000000036,-0.98,0.038146819740601634
0.06000000000000005,-0.98,-0.019911087773907116
0.08000000000000007,-0.98,-0.0776549855399141
0.10000000000000009,-0.98,-0.13417421779511685
0.1200000000000001,-0.98,-0.18857744248389788
0.14000000000000012,-0.98,-0.24000668825400417
0.15999999999999992,-0.98,-0.2876508851772988
0.17999999999999994,-0.98,-0.3307586558070378
0.19999999999999996,-0.98,-0.3686501648490561
0.21999999999999997,-0.98,-0.400727840570471
0.24,-0.98,-0.4264857988628809
0.26,-0.98,-0.4455178213369558
0.28,-0.98,-0.4575237616291007
0.30000000000000004,-0.98,-0.46231427888890725
0.32000000000000006,-0.98,-0.45981382379747193
0.3400000000000001,-0.98,-0.4500618300252867
0.3600000000000001,-0.98,-0.4332120923396974
0.3800000000000001,-0.98,-0.40953034116955117
0.40000000000000013,-0.98,-0.3793900518775936
0.41999999999999993,-0.98,-0.34326655483089474
0.43999999999999995,-0.98,-0.30172953915701256
0.45999999999999996,-0.98,-0.25543406840613425
0.48,-0.98,-0.2051102498075749
0.5,-0.98,-0.15155172004262601
0.52,-0.98,-0.09560312911999552
0.54,-0.98,-0.0381468197406016
0.56,-0.98,0.01991108777390713
0.5800000000000001,-0.98,0.07765498553991412
0.6000000000000001,-0.98,0.13417421779511687
0.6200000000000001,-0.98,0.18857744248389793
0.6400000000000001,-0.98,0.24000668825400426
0.6600000000000001,-0.98,0.2876508851772988
0.6799999999999999,-0.98,0.3307586558070378
0.7,-0.98,0.3686501648490563
0.72,-0.98,0.40072784057047084
0.74,-0.98,0.4264857988628809
0.76,-0.98,0.44551782133695594
0.78,-0.98,0.45752376162910086
0.8,-0.98,0.46231427888890736
0.8200000000000001,-0.98,0.4598138237974718
0.8400000000000001,-0.98,0.4500618300252867
0.8600000000000001,-0.98,0.43321209233969726
0.8800000000000001,-0.98,0.409530341169551
0.9000000000000001,-0.98,0.3793900518775935
0.9199999999999999,-0.98,0.34326655483089497
0.94,-0.98,0.3017295391570125
0.96,-0.98,0.2554340684061342
0.98,-0.98,0.20511024980757492
1.0,-0.98,0.15155172004262601

-1.0,-0.96,0.08591126131790128
-0.98,-0.96,0.0381468197406017
-0.96,-0.96,-0.010219219971812726
-0.94,-0.96,-0.058424096480605564
-0.92,-0.96,-0.10570759008703574
-0.9,-0.96,-0.15132401185113986
-0.88,-0.96,-0.19455396355176863
-0.86,-0.96,-0.2347156830262814
-0.84,-0.96,-0.2711757959671173
-0.8200000000000001,-0.96,-0.3033593046129832
-0.8,-0.96,-0.3307586558070378
-0.78,-0.96,-0.35294174541337164
-0.76,-0.96,-0.36955873285735763
-0.74,-0.96,-0.3803475583204969
-0.72,-0.96,-0.38513807558030333
-0.7,-0.96,-0.38385473531787406
-0.6799999999999999,-0.96,-0.3765177765757779
-0.6599999999999999,-0.96,-0.36324290757626454
-0.64,-0.96,-0.3442394809334784
-0.62,-0.96,-0.31980719203767327
-0.6,-0.96,-0.29033135267987764
-0.5800000000000001,-0.96,-0.25627681445477696
-0.56,-0.96,-0.2181806377733763
-0.54,-0.96,-0.176643622099494
-0.52,-0.96,-0.1323208309833176
-0.5,-0.96,-0.08591126131790128
-0.48,-0.96,-0.03814681974060166
-0.45999999999999996,-0.96,0.010219219971812746
-0.43999999999999995,-0.96,0.058424096480605564
-0.42000000000000004,-0.96,0.10570759008703579
-0.4,-0.96,0.15132401185113997
-0.38,-0.96,0.19455396355176868
-0.36,-0.96,0.2347156830262815
-0.33999999999999997,-0.96,0.2711757959671174
-0.31999999999999995,-0.96,0.3033593046129831
-0.29999999999999993,-0.96,0.3307586558070377
-0.28,-0.96,0.35294174541337175
-0.26,-0.96,0.3695587328573577
-0.24,-0.96,0.380347558320497
-0.21999999999999997,-0.96,0.38513807558030333
-0.19999999999999996,-0.96,0.383854735317874
-0.17999999999999994,-0.96,0.3765177765757779
-0.16000000000000003,-0.96,0.36324290757626443
-0.14,-0.96,0.3442394809334782
-0.12,-0.96,0.31980719203767327
-0.09999999999999998,-0.96,0.29033135267987764
-0.07999999999999996,-0.96,0.256276814454777
-0.05999999999999994,-0.96,0.2181806377733763
-0.040000000000000036,-0.96,0.176643622099494
-0.020000000000000018,-0.96,0.1323208309833176
0.0,-0.96,0.08591126131790122
0.020000000000000018,-0.96,0.03814681974060165
0.040000000000000036,-0.96,-0.010219219971812753
0.06000000000000005,-0.96,-0.05842409648060562
0.08000000000000007,-0.96,-0.1057075900870358
0.10000000000000009,-0.96,-0.15132401185113994
0.1200000000000001,-0.96,-0.19455396355176863
0.14000000000000012,-0.96,-0.23471568302628149
0.15999999999999992,-0.96,-0.2711757959671172
0.17999999999999994,-0.96,-0.3033593046129831
0.19999999999999996,-0.96,-0.3307586558070378
0.21999999999999997,-0.96,-0.35294174541337175
0.24,-0.96,-0.3695587328573576
0.26,-0.96,-0.3803475583204967
0.28,-0.96,-0.3851380755803034
0.30000000000000004,-0.96,-0.383854735317874
0.32000000000000006,-0.96,-0.3765177765757779
0.3400000000000001,-0.96,-0.36324290757626443
0.3600000000000001,-0.96,-0.34423948093347834
0.3800000000000001,-0.96,-0.3198071920376732
0.40000000000000013,-0.96,-0.29033135267987753
0.41999999999999993,-0.96,-0.256276814454777
0.43999999999999995,-0.96,-0.2181806377733763
0.45999999999999996,-0.96,-0.17664362209949394
0.48,-0.96,-0.1323208309833176
0.5,-0.96,-0.08591126131790122
0.52,-0.96,-0.03814681974060162
0.54,-0.96,0.010219219971812774
0.56,-0.96,0.05842409648060563
0.5800000000000001,-0.96,0.10570759008703584
0.6000000000000001,-0.96,0.15132401185114
0.6200000000000001,-0.96,0.19455396355176868
0.6400000000000001,-0.96,0.2347156830262815
0.6600000000000001,-0.96,0.2711757959671172
0.6799999999999999,-0.96,0.3033593046129832
0.7,-0.96,0.33075865580703767
0.72,-0.96,0.3529417454133717
0.74,-0.96,0.36955873285735774
0.76,-0.96,0.3803475583204969
0.78,-0.96,0.38513807558030344
0.8,-0.96,0.3838547353178739
0.8200000000000001,-0.96,0.37651777657577784
0.8400000000000001,-0.96,0.3632429075762644
0.8600000000000001,-0.96,0.34423948093347817
0.8800000000000001,-0.96,0.31980719203767316
0.9000000000000001,-0.96,0.2903313526798777
0.9199999999999999,-0.96,0.256276814454777
0.94,-0.96,0.21818063777337626
0.96,-0.96,0.17664362209949397
0.98,-0.96,0.13232083098331757
1.0,-0.96,0.08591126131790128

-1.0,-0.94,0.01891593068129322
-0.98,-0.94,-0.019911087773907078
-0.96,-0.94,-0.05842409648060555
-0.94,-0.94,-0.0960157222849414
-0.92,-0.94,-0.13209312279183144
-0.9,-0.94,-0.16608733584368768
-0.88,-0.94,-0.19746225239352347
-0.86,-0.94,-0.22572307126488167
-0.84,-0.94,-0.2504241024619659
-0.8200000000000001,-0.94,-0.27117579596711716
-0.8,-0.94,-0.2876508851772986
-0.78,-0.94,-0.2995895480939244
-0.76,-0.94,-0.3068035048709878
-0.74,-0.94,-0.3091789871007052
-0.72,-0.94,-0.3066785320092702
-0.7,-0.94,-0.29934157326717403
-0.6799999999999999,-0.94,-0.28728381909666645
-0.6599999999999999,-0.94,-0.27069542748396946
-0.64,-0.94,-0.24983800727424013
-0.62,-0.94,-0.2250404924438047
-0.6,-0.94,-0.19669395461485645
-0.5800000000000001,-0.94,-0.165245435622359
-0.56,-0.94,-0.1311908973972584
-0.54,-0.94,-0.0950674003505596
-0.52,-0.94,-0.057444633609820266
-0.5,-0.94,-0.018915930681293196
-0.48,-0.94,0.019911087773907092
-0.45999999999999996,-0.94,0.058424096480605564
-0.43999999999999995,-0.94,0.09601572228494143
-0.42000000000000004,-0.94,0.13209312279183152
-0.4,-0.94,0.16608733584368773
-0.38,-0.94,0.19746225239352358
-0.36,-0.94,0.22572307126488178
-0.33999999999999997,-0.94,0.2504241024619658
-0.31999999999999995,-0.94,0.27117579596711716
-0.29999999999999993,-0.94,0.2876508851772987
-0.28,-0.94,0.29958954809392446
-0.26,-0.94,0.3068035048709879
-0.24,-0.94,0.30917898710070524
-0.21999999999999997,-0.94,0.30667853200927014
-0.19999999999999996,-0.94,0.29934157326717403
-0.17999999999999994,-0.94,0.28728381909666645
-0.16000000000000003,-0.94,0.27069542748396935
-0.14,-0.94,0.24983800727424016
-0.12,-0.94,0.2250404924438047
-0.09999999999999998,-0.94,0.1966939546148565
-0.07999999999999996,-0.94,0.16524543562235894
-0.05999999999999994,-0.94,0.13119089739725837
-0.040000000000000036,-0.94,0.09506740035055958
-0.020000000000000018,-0.94,0.0574446336098202
0.0,-0.94,0.018915930681293176
0.020000000000000018,-0.94,-0.019911087773907092
0.040000000000000036,-0.94,-0.058424096480605606
0.06000000000000005,-0.94,-0.09601572228494144
0.08000000000000007,-0.94,-0.13209312279183152
0.10000000000000009,-0.94,-0.16608733584368773
0.1200000000000001,-0.94,-0.19746225239352355
0.14000000000000012,-0.94,-0.22572307126488167
0.15999999999999992,-0.94,-0.25042410246196584
0.17999999999999994,-0.94,-0.27117579596711716
0.19999999999999996,-0.94,-0.28765088517729875
0.21999999999999997,-0.94,-0.29958954809392435
0.24,-0.94,-0.3068035048709876
0.26,-0.94,-0.3091789871007053
0.28,-0.94,-0.3066785320092702
0.30000000000000004,-0.94,-0.29934157326717403
0.32000000000000006,-0.94,-0.28728381909666645
0.3400000000000001,-0.94,-0.2706954274839694
0.3600000000000001,-0.94,-0.24983800727424016
0.3800000000000001,-0.94,-0.2250404924438047
0.40000000000000013,-0.94,-0.19669395461485653
0.41999999999999993,-0.94,-0.165245435622359
0.43999999999999995,-0.94,-0.13119089739725834
0.45999999999999996,-0.94,-0.09506740035055956
0.48,-0.94,-0.0574446336098202
0.5,-0.94,-0.018915930681293183
0.52,-0.94,0.01991108777390712
0.54,-0.94,0.058424096480605606
0.56,-0.94,0.09601572228494147
0.5800000000000001,-0.94,0.13209312279183152
0.6000000000000001,-0.94,0.16608733584368773
0.6200000000000001,-0.94,0.19746225239352358
0.6400000000000001,-0.94,0.22572307126488164
0.6600000000000001,-0.94,0.25042410246196584
0.6799999999999999,-0.94,0.2711757959671171
0.7,-0.94,0.28765088517729864
0.72,-0.94,0.29958954809392446
0.74,-0.94,0.30680350487098773
0.76,-0.94,0.30917898710070535
0.78,-0.94,0.30667853200927003
0.8,-0.94,0.2993415732671739
0.8200000000000001,-0.94,0.2872838190966664
0.8400000000000001,-0.94,0.27069542748396924
0.8600000000000001,-0.94,0.2498380072742401
0.8800000000000001,-0.94,0.22504049244380475
0.9000000000000001,-0.94,0.1966939546148565
0.9199999999999999,-0.94,0.16524543562235894
0.94,-0.94,0.13119089739725834
0.96,-0.94,0.09506740035055955
0.98,-0.94,0.057444633609820245
1.0,-0.94,0.01891593068129322

-1.0,-0.92,-0.048377715481988104
-0.98,-0.92,-0.07765498553991398
-0.96,-0.92,-0.10570759008703574
-0.94,-0.92,-0.1320931227918314
-0.92,-0.92,-0.15639546804159332
-0.9,-0.92,-0.17823136333421508
-0.88,-0.92,-0.1972564435568007
-0.86,-0.92,-0.21317067182920785
-0.84,-0.92,-0.22572307126488153
-0.8200000000000001,-0.92,-0.23471568302628124
-0.8,-0.92,-0.24000668825400379
-0.78,-0.92,-0.2415126446349147
-0.76,-0.92,-0.23920980233727204
-0.74,-0.92,-0.23313447855976127
-0.72,-0.92,-0.22338248478757597
-0.7,-0.92,-0.2101076157880625
-0.6799999999999999,-0.92,-0.19351922417536555
-0.6599999999999999,-0.92,-0.17387891879464196
-0.64,-0.92,-0.1514964389942956
-0.62,-0.92,-0.12672476985142325
-0.6,-0.92,-0.09995457538628595
-0.5800000000000001,-0.92,-0.07160803755733774
-0.56,-0.92,-0.04213219819954214
-0.54,-0.92,-0.011991908907584586
-0.52,-0.92,0.01833749995146485
-0.5,-0.92,0.048377715481988104
-0.48,-0.92,0.07765498553991403
-0.45999999999999996,-0.92,0.10570759008703574
-0.43999999999999995,-0.92,0.1320931227918315
-0.42000000000000004,-0.92,0.1563954680415934
-0.4,-0.92,0.17823136333421516
-0.38,-0.92,0.1972564435568008
-0.36,-0.92,0.2131706718292078
-0.33999999999999997,-0.92,0.22572307126488156
-0.31999999999999995,-0.92,0.23471568302628132
-0.29999999999999993,-0.92,0.24000668825400379
-0.28,-0.92,0.24151264463491479
-0.26,-0.92,0.23920980233727213
-0.24,-0.92,0.23313447855976122
-0.21999999999999997,-0.92,0.22338248478757597
-0.19999999999999996,-0.92,0.21010761578806253
-0.17999999999999994,-0.92,0.19351922417536543
-0.16000000000000003,-0.92,0.17387891879464196
-0.14,-0.92,0.15149643899429563
-0.12,-0.92,0.1267247698514233
-0.09999999999999998,-0.92,0.09995457538628591
-0.07999999999999996,-0.92,0.07160803755733773
-0.05999999999999994,-0.92,0.04213219819954214
-0.040000000000000036,-0.92,0.01199190890758452
-0.020000000000000018,-0.92,-0.01833749995146486
0.0,-0.92,-0.048377715481988104
0.020000000000000018,-0.92,-0.07765498553991407
0.040000000000000036,-0.92,-0.10570759008703574
0.06000000000000005,-0.92,-0.13209312279183152
0.08000000000000007,-0.92,-0.1563954680415934
0.10000000000000009,-0.92,-0.17823136333421516
0.1200000000000001,-0.92,-0.1972564435568007
0.14000000000000012,-0.92,-0.21317067182920782
0.15999999999999992,-0.92,-0.22572307126488148
0.17999999999999994,-0.92,-0.2347156830262813
0.19999999999999996,-0.92,-0.24000668825400376
0.21999999999999997,-0.92,-0.2415126446349146
0.24,-0.92,-0.23920980233727213
0.26,-0.92,-0.23313447855976127
0.28,-0.92,-0.22338248478757597
0.30000000000000004,-0.92,-0.2101076157880625
0.32000000000000006,-0.92,-0.1935192241753655
0.3400000000000001,-0.92,-0.173878918794642
0.3600000000000001,-0.92,-0.1514964389942956
0.3800000000000001,-0.92,-0.12672476985142334
0.40000000000000013,-0.92,-0.09995457538628594
0.41999999999999993,-0.92,-0.07160803755733773
0.43999999999999995,-0.92,-0.04213219819954213
0.45999999999999996,-0.92,-0.011991908907584517
0.48,-0.92,0.018337499951464824
0.5,-0.92,0.04837771548198813
0.52,-0.92,0.07765498553991407
0.54,-0.92,0.10570759008703577
0.56,-0.92,0.1320931227918315
0.5800000000000001,-0.92,0.15639546804159338
0.6000000000000001,-0.92,0.1782313633342152
0.6200000000000001,-0.92,0.1972564435568007
0.6400000000000001,-0.92,0.21317067182920782
0.6600000000000001,-0.92,0.22572307126488153
0.6799999999999999,-0.92,0.2347156830262812
0.7,-0.92,0.24000668825400379
0.72,-0.92,0.24151264463491465
0.74,-0.92,0.23920980233727215
0.76,-0.92,0.23313447855976113
0.78,-0.92,0.2233824847875759
0.8,-0.92,0.21010761578806253
0.8200000000000001,-0.92,0.19351922417536538
0.8400000000000001,-0.92,0.17387891879464196
0.8600000000000001,-0.92,0.15149643899429568
0.8800000000000001,-0.92,0.12672476985142334
0.9000000000000001,-0.92,0.0999545753862859
0.9199999999999999,-0.92,0.0716080375573377
0.94,-0.92,0.04213219819954213
0.96,-0.92,0.011991908907584559
0.98,-0.92,-0.018337499951464824
1.0,-0.92,-0.048377715481988104

-1.0,-0.9,-0.11490841617267197
-0.98,-0.9,-0.13417421779511673
-0.96,-0.9,-0.15132401185113983
-0.94,-0.9,-0.16608733584368765
-0.92,-0.9,-0.17823136333421508
-0.9,-0.9,-0.1875645757547064
-0.88,-0.9,-0.19393978276989937
-0.86,-0.9,-0.19725644355680044
-0.84,-0.9,-0.19746225239352316
-0.8200000000000001,-0.9,-0.19455396355176816
-0.8,-0.9,-0.18857744248389732
-0.78,-0.9,-0.17962694249735156
-0.76,-0.9,-0.16784361832368838
-0.74,-0.9,-0.15341330002414288
-0.72,-0.9,-0.13656356233855352
-0.7,-0.9,-0.1175601356957674
-0.6799999999999999,-0.9,-0.0967027154860379
-0.6599999999999999,-0.9,-0.07432023568569149
-0.64,-0.9,-0.05076568137182498
-0.62,-0.9,-0.02641052193677675
-0.6,-0.9,-0.001638852793904369
-0.5800000000000001,-0.9,0.023158662036531046
-0.56,-0.9,0.04759095093233611
-0.54,-0.9,0.07127270210248232
-0.52,-0.9,0.09383044018422379
-0.5,-0.9,0.11490841617267203
-0.48,-0.9,0.13417421779511673
-0.45999999999999996,-0.9,0.1513240118511399
-0.43999999999999995,-0.9,0.16608733584368768
-0.42000000000000004,-0.9,0.17823136333421516
-0.4,-0.9,0.18756457575470653
-0.38,-0.9,0.19393978276989932
-0.36,-0.9,0.1972564435568005
-0.33999999999999997,-0.9,0.19746225239352325
-0.31999999999999995,-0.9,0.19455396355176816
-0.29999999999999993,-0.9,0.18857744248389738
-0.28,-0.9,0.1796269424973516
-0.26,-0.9,0.1678436183236883
-0.24,-0.9,0.15341330002414288
-0.21999999999999997,-0.9,0.13656356233855355
-0.19999999999999996,-0.9,0.11756013569576726
-0.17999999999999994,-0.9,0.0967027154860379
-0.16000000000000003,-0.9,0.07432023568569152
-0.14,-0.9,0.050765681371824994
-0.12,-0.9,0.02641052193677671
-0.09999999999999998,-0.9,0.001638852793904362
-0.07999999999999996,-0.9,-0.02315866203653103
-0.05999999999999994,-0.9,-0.04759095093233618
-0.040000000000000036,-0.9,-0.07127270210248232
-0.020000000000000018,-0.9,-0.09383044018422376
0.0,-0.9,-0.11490841617267203
0.020000000000000018,-0.9,-0.1341742177951167
0.040000000000000036,-0.9,-0.15132401185113997
0.06000000000000005,-0.9,-0.1660873358436877
0.08000000000000007,-0.9,-0.17823136333421516
0.10000000000000009,-0.9,-0.18756457575470642
0.1200000000000001,-0.9,-0.1939397827698993
0.14000000000000012,-0.9,-0.19725644355680041
0.15999999999999992,-0.9,-0.1974622523935232
0.17999999999999994,-0.9,-0.19455396355176813
0.19999999999999996,-0.9,-0.18857744248389724
0.21999999999999997,-0.9,-0.1796269424973516
0.24,-0.9,-0.16784361832368838
0.26,-0.9,-0.1534133000241429
0.28,-0.9,-0.13656356233855355
0.30000000000000004,-0.9,-0.11756013569576734
0.32000000000000006,-0.9,-0.09670271548603795
0.3400000000000001,-0.9,-0.07432023568569147
0.3600000000000001,-0.9,-0.05076568137182508
0.3800000000000001,-0.9,-0.02641052193677674
0.40000000000000013,-0.9,-0.0016388527939043968
0.41999999999999993,-0.9,0.023158662036531018
0.43999999999999995,-0.9,0.04759095093233619
0.45999999999999996,-0.9,0.07127270210248227
0.48,-0.9,0.09383044018422382
0.5,-0.9,0.11490841617267206
0.52,-0.9,0.1341742177951168
0.54,-0.9,0.15132401185113994
0.56,-0.9,0.16608733584368765
0.5800000000000001,-0.9,0.17823136333421516
0.6000000000000001,-0.9,0.18756457575470636
0.6200000000000001,-0.9,0.1939397827698993
0.6400000000000001,-0.9,0.19725644355680047
0.6600000000000001,-0.9,0.1974622523935232
0.6799999999999999,-0.9,0.19455396355176813
0.7,-0.9,0.18857744248389727
0.72,-0.9,0.17962694249735162
0.74,-0.9,0.16784361832368827
0.76,-0.9,0.15341330002414286
0.78,-0.9,0.13656356233855355
0.8,-0.9,0.11756013569576729
0.8200000000000001,-0.9,0.0967027154860379
0.8400000000000001,-0.9,0.07432023568569157
0.8600000000000001,-0.9,0.05076568137182503
0.8800000000000001,-0.9,0.0264105219367767
0.9000000000000001,-0.9,0.0016388527939043482
0.9199999999999999,-0.9,-0.02315866203653103
0.94,-0.9,-0.04759095093233616
0.96,-0.9,-0.0712727021024823
0.98,-0.9,-0.09383044018422379
1.0,-0.9,-0.11490841617267197

-1.0,-0.88,-0.1796269424973523
-0.98,-0.88,-0.18857744248389777
-0.96,-0.88,-0.19455396355176857
-0.94,-0.88,-0.19746225239352347
-0.92,-0.88,-0.1972564435568007
-0.9,-0.88,-0.19393978276989934
-0.88,-0.88,-0.18756457575470611
-0.86,-0.88,-0.17823136333421466
-0.84,-0.88,-0.16608733584368712
-0.8200000000000001,-0.88,-0.15132401185113933
-0.8,-0.88,-0.13417421779511599
-0.78,-0.88,-0.11490841617267106
-0.76,-0.88,-0.09383044018422243
-0.74,-0.88,-0.07127270210248061
-0.72,-0.88,-0.04759095093233424
-0.7,-0.88,-0.023158662036528804
-0.6799999999999999,-0.88,0.0016388527939068046
-0.6599999999999999,-0.88,0.026410521936779195
-0.64,-0.88,0.05076568137182747
-0.62,-0.88,0.07432023568569406
-0.6,-0.88,0.09670271548604042
-0.5800000000000001,-0.88,0.11756013569576959
-0.56,-0.88,0.13656356233855554
-0.54,-0.88,0.1534133000241445
-0.52,-0.88,0.16784361832368944
-0.5,-0.88,0.1796269424973523
-0.48,-0.88,0.1885774424838978
-0.45999999999999996,-0.88,0.19455396355176854
-0.43999999999999995,-0.88,0.19746225239352352
-0.42000000000000004,-0.88,0.19725644355680083
-0.4,-0.88,0.19393978276989932
-0.38,-0.88,0.18756457575470617
-0.36,-0.88,0.17823136333421477
-0.33999999999999997,-0.88,0.16608733584368715
-0.31999999999999995,-0.88,0.1513240118511394
-0.29999999999999993,-0.88,0.13417421779511599
-0.28,-0.88,0.114908416172671
-0.26,-0.88,0.0938304401842224
-0.24,-0.88,0.0712727021024806
-0.21999999999999997,-0.88,0.04759095093233412
-0.19999999999999996,-0.88,0.023158662036528766
-0.17999999999999994,-0.88,-0.0016388527939067837
-0.16000000000000003,-0.88,-0.026410521936779188
-0.14,-0.88,-0.0507656813718275
-0.12,-0.88,-0.07432023568569406
-0.09999999999999998,-0.88,-0.0967027154860404
-0.07999999999999996,-0.88,-0.11756013569576967
-0.05999999999999994,-0.88,-0.13656356233855557
-0.040000000000000036,-0.88,-0.15341330002414447
-0.020000000000000018,-0.88,-0.1678436183236894
0.0,-0.88,-0.17962694249735225
0.020000000000000018,-0.88,-0.1885774424838979
0.040000000000000036,-0.88,-0.1945539635517686
0.06000000000000005,-0.88,-0.19746225239352358
0.08000000000000007,-0.88,-0.19725644355680075
0.10000000000000009,-0.88,-0.19393978276989926
0.1200000000000001,-0.88,-0.1875645757547061
0.14000000000000012,-0.88,-0.1782313633342147
0.15999999999999992,-0.88,-0.16608733584368712
0.17999999999999994,-0.88,-0.15132401185113928
0.19999999999999996,-0.88,-0.13417421779511596
0.21999999999999997,-0.88,-0.11490841617267106
0.24,-0.88,-0.09383044018422243
0.26,-0.88,-0.07127270210248061
0.28,-0.88,-0.04759095093233419
0.30000000000000004,-0.88,-0.02315866203652883
0.32000000000000006,-0.88,0.0016388527939068323
0.3400000000000001,-0.88,0.026410521936779105
0.3600000000000001,-0.88,0.05076568137182748
0.3800000000000001,-0.88,0.07432023568569401
0.40000000000000013,-0.88,0.09670271548604037
0.41999999999999993,-0.88,0.11756013569576967
0.43999999999999995,-0.88,0.13656356233855546
0.45999999999999996,-0.88,0.15341330002414452
0.48,-0.88,0.1678436183236894
0.5,-0.88,0.17962694249735234
0.52,-0.88,0.18857744248389782
0.54,-0.88,0.19455396355176854
0.56,-0.88,0.19746225239352352
0.5800000000000001,-0.88,0.1972564435568007
0.6000000000000001,-0.88,0.1939397827698993
0.6200000000000001,-0.88,0.1875645757547061
0.6400000000000001,-0.88,0.1782313633342147
0.6600000000000001,-0.88,0.1660873358436871
0.6799999999999999,-0.88,0.1513240118511393
0.7,-0.88,0.13417421779511599
0.72,-0.88,0.11490841617267097
0.74,-0.88,0.0938304401842224
0.76,-0.88,0.07127270210248063
0.78,-0.88,0.04759095093233417
0.8,-0.88,0.02315866203652876
0.8200000000000001,-0.88,-0.001638852793906742
0.8400000000000001,-0.88,-0.02641052193677916
0.8600000000000001,-0.88,-0.05076568137182752
0.8800000000000001,-0.88,-0.07432023568569407
0.9000000000000001,-0.88,-0.09670271548604037
0.9199999999999999,-0.88,-0.11756013569576965
0.94,-0.88,-0.13656356233855552
0.96,-0.88,-0.15341330002414447
0.98,-0.88,-0.16784361832368935
1.0,-0.88,-0.1796269424973523

-1.0,-0.86,-0.24151264463491504
-0.98,-0.86,-0.24000668825400406
-0.96,-0.86,-0.23471568302628143
-0.94,-0.86,-0.22572307126488164
-0.92,-0.86,-0.21317067182920785
-0.9,-0.86,-0.1972564435568005
-0.88,-0.86,-0.17823136333421466
-0.86,-0.86,-0.15639546804159282
-0.84,-0.86,-0.13209312279183089
-0.8200000000000001,-0.86,-0.10570759008703498
-0.8,-0.86,-0.0776549855399131
-0.78,-0.86,-0.04837771548198687
-0.76,-0.86,-0.01833749995146333
-0.74,-0.86,0.0119919089075863
-0.72,-0.86,0.042132198199544196
-0.7,-0.86,0.0716080375573401
-0.6799999999999999,-0.86,0.09995457538628844
-0.6599999999999999,-0.86,0.1267247698514259
-0.64,-0.86,0.15149643899429838
-0.62,-0.86,0.17387891879464482
-0.6,-0.86,0.19351922417536815
-0.5800000000000001,-0.86,0.21010761578806494
-0.56,-0.86,0.223382484787578
-0.54,-0.86,0.23313447855976255
-0.52,-0.86,0.23920980233727282
-0.5,-0.86,0.241512644634915
-0.48,-0.86,0.24000668825400406
-0.45999999999999996,-0.86,0.23471568302628143
-0.43999999999999995,-0.86,0.22572307126488178
-0.42000000000000004,-0.86,0.21317067182920782
-0.4,-0.86,0.19725644355680053
-0.38,-0.86,0.17823136333421477
-0.36,-0.86,0.15639546804159285
-0.33999999999999997,-0.86,0.1320931227918309
-0.31999999999999995,-0.86,0.10570759008703495
-0.29999999999999993,-0.86,0.07765498553991304
-0.28,-0.86,0.04837771548198683
-0.26,-0.86,0.018337499951463273
-0.24,-0.86,-0.01199190890758637
-0.21999999999999997,-0.86,-0.04213219819954427
-0.19999999999999996,-0.86,-0.07160803755734008
-0.17999999999999994,-0.86,-0.09995457538628844
-0.16000000000000003,-0.86,-0.1267247698514259
-0.14,-0.86,-0.15149643899429838
-0.12,-0.86,-0.1738789187946448
-0.09999999999999998,-0.86,-0.19351922417536824
-0.07999999999999996,-0.86,-0.210107615788065
-0.05999999999999994,-0.86,-0.22338248478757794
-0.040000000000000036,-0.86,-0.23313447855976252
-0.020000000000000018,-0.86,-0.23920980233727276
0.0,-0.86,-0.24151264463491517
0.020000000000000018,-0.86,-0.2400066882540041
0.040000000000000036,-0.86,-0.23471568302628154
0.06000000000000005,-0.86,-0.2257230712648817
0.08000000000000007,-0.86,-0.2131706718292078
0.10000000000000009,-0.86,-0.1972564435568005
0.1200000000000001,-0.86,-0.1782313633342147
0.14000000000000012,-0.86,-0.15639546804159277
0.15999999999999992,-0.86,-0.13209312279183083
0.17999999999999994,-0.86,-0.10570759008703495
0.19999999999999996,-0.86,-0.07765498553991307
0.21999999999999997,-0.86,-0.04837771548198684
0.24,-0.86,-0.018337499951463315
0.26,-0.86,0.011991908907586328