TITLE = "Solution" 
VARIABLES = "x", "y", "sol" 
ZONE STRANDID=1, SOLUTIONTIME= 0.6400000000000003, I= 101, J =101, DATAPACKING=POINT 
-1.0,-1.0,0.3949431522581341
-0.98,-1.0,0.3302722888273685
-0.96,-1.0,0.26039283410669367
-0.94,-1.0,0.18640682884101675
-0.92,-1.0,0.10948107653047487
-0.9,-1.0,0.030828742242222436
-0.88,-1.0,-0.048309779727387925
-0.86,-1.0,-0.12668642761183388
-0.84,-1.0,-0.20306515485403748
-0.8200000000000001,-1.0,-0.27624142329894935
-0.8,-1.0,-0.3450611994798092
-0.78,-1.0,-0.4084391544153036
-0.76,-1.0,-0.4653757798959442
-0.74,-1.0,-0.5149731513256103
-0.72,-1.0,-0.5564490885288222
-0.7,-1.0,-0.5891494911993614
-0.6799999999999999,-1.0,-0.6125586544528399
-0.6599999999999999,-1.0,-0.6263074018007936
-0.64,-1.0,-0.6301789072844418
-0.62,-1.0,-0.6241121149495825
-0.6,-1.0,-0.6082027017354626
-0.5800000000000001,-1.0,-0.5827015685922914
-0.56,-1.0,-0.5480108836233757
-0.54,-1.0,-0.5046777396538856
-0.52,-1.0,-0.4533855262501853
-0.5,-1.0,-0.39494315225813414
-0.48,-1.0,-0.33027228882736853
-0.45999999999999996,-1.0,-0.2603928341066936
-0.43999999999999995,-1.0,-0.18640682884101678
-0.42000000000000004,-1.0,-0.10948107653047492
-0.4,-1.0,-0.0308287422422224
-0.38,-1.0,0.04830977972738803
-0.36,-1.0,0.12668642761183393
-0.33999999999999997,-1.0,0.20306515485403764
-0.31999999999999995,-1.0,0.2762414232989494
-0.29999999999999993,-1.0,0.34506119947980934
-0.28,-1.0,0.40843915441530365
-0.26,-1.0,0.4653757798959443
-0.24,-1.0,0.5149731513256104
-0.21999999999999997,-1.0,0.5564490885288221
-0.19999999999999996,-1.0,0.5891494911993616
-0.17999999999999994,-1.0,0.61255865445284
-0.16000000000000003,-1.0,0.6263074018007936
-0.14,-1.0,0.6301789072844419
-0.12,-1.0,0.6241121149495823
-0.09999999999999998,-1.0,0.6082027017354625
-0.07999999999999996,-1.0,0.5827015685922914
-0.05999999999999994,-1.0,0.5480108836233755
-0.040000000000000036,-1.0,0.5046777396538854
-0.020000000000000018,-1.0,0.45338552625018536
0.0,-1.0,0.3949431522581339
0.020000000000000018,-1.0,0.3302722888273684
0.040000000000000036,-1.0,0.2603928341066936
0.06000000000000005,-1.0,0.18640682884101675
0.08000000000000007,-1.0,0.10948107653047487
0.10000000000000009,-1.0,0.030828742242222335
0.1200000000000001,-1.0,-0.04830977972738805
0.14000000000000012,-1.0,-0.12668642761183393
0.15999999999999992,-1.0,-0.2030651548540376
0.17999999999999994,-1.0,-0.27624142329894935
0.19999999999999996,-1.0,-0.3450611994798092
0.21999999999999997,-1.0,-0.4084391544153035
0.24,-1.0,-0.46537577989594425
0.26,-1.0,-0.5149731513256103
0.28,-1.0,-0.5564490885288221
0.30000000000000004,-1.0,-0.5891494911993613
0.32000000000000006,-1.0,-0.6125586544528399
0.3400000000000001,-1.0,-0.6263074018007935
0.3600000000000001,-1.0,-0.6301789072844416
0.3800000000000001,-1.0,-0.6241121149495823
0.40000000000000013,-1.0,-0.6082027017354624
0.41999999999999993,-1.0,-0.5827015685922915
0.43999999999999995,-1.0,-0.5480108836233754
0.45999999999999996,-1.0,-0.5046777396538856
0.48,-1.0,-0.45338552625018513
0.5,-1.0,-0.39494315225813376
0.52,-1.0,-0.33027228882736853
0.54,-1.0,-0.2603928341066936
0.56,-1.0,-0.18640682884101667
0.5800000000000001,-1.0,-0.10948107653047484
0.6000000000000001,-1.0,-0.030828742242222304
0.6200000000000001,-1.0,0.048309779727388084
0.6400000000000001,-1.0,0.12668642761183393
0.6600000000000001,-1.0,0.2030651548540376
0.6799999999999999,-1.0,0.2762414232989494
0.7,-1.0,0.3450611994798093
0.72,-1.0,0.4084391544153036
0.74,-1.0,0.4653757798959443
0.76,-1.0,0.5149731513256103
0.78,-1.0,0.5564490885288225
0.8,-1.0,0.5891494911993613
0.8200000000000001,-1.0,0.61255865445284
0.8400000000000001,-1.0,0.6263074018007936
0.8600000000000001,-1.0,0.6301789072844419
0.8800000000000001,-1.0,0.6241121149495826
0.9000000000000001,-1.0,0.6082027017354624
0.9199999999999999,-1.0,0.5827015685922915
0.94,-1.0,0.5480108836233752
0.96,-1.0,0.5046777396538853
0.98,-1.0,0.4533855262501851
1.0,-1.0,0.3949431522581341

-1.0,-0.98,0.3302722888273685
-0.98,-0.98,0.26985723520061555
-0.96,-0.98,0.20518637176985016
-0.94,-0.98,0.13727959668387696
-0.92,-0.98,0.06720784035134307
-0.9,-0.98,-0.0039238237715494215
-0.88,-0.98,-0.07499360684958593
-0.86,-0.98,-0.14488069594859512
-0.84,-0.98,-0.2124829299249624
-0.8200000000000001,-0.98,-0.2767341811652631
-0.8,-0.98,-0.33662116905560113
-0.78,-0.98,-0.39119944002219276
-0.76,-0.98,-0.4396082621284166
-0.74,-0.98,-0.4810841993316285
-0.72,-0.98,-0.5149731513256102
-0.7,-0.98,-0.5407406690931376
-0.6799999999999999,-0.98,-0.557980383486248
-0.6599999999999999,-0.98,-0.5664204139104555
-0.64,-0.98,-0.5659276560441406
-0.62,-0.98,-0.5565098809732151
-0.6,-0.98,-0.5383156126364533
-0.5800000000000001,-0.98,-0.5116317855142554
-0.56,-0.98,-0.47687921950048356
-0.54,-0.98,-0.4346059833213519
-0.52,-0.98,-0.3854787511642123
-0.5,-0.98,-0.33027228882736853
-0.48,-0.98,-0.2698572352006155
-0.45999999999999996,-0.98,-0.2051863717698502
-0.43999999999999995,-0.98,-0.13727959668387704
-0.42000000000000004,-0.98,-0.06720784035134307
-0.4,-0.98,0.003923823771549508
-0.38,-0.98,0.07499360684958599
-0.36,-0.98,0.14488069594859526
-0.33999999999999997,-0.98,0.21248292992496248
-0.31999999999999995,-0.98,0.27673418116526327
-0.29999999999999993,-0.98,0.3366211690556012
-0.28,-0.98,0.39119944002219287
-0.26,-0.98,0.43960826212841664
-0.24,-0.98,0.48108419933162844
-0.21999999999999997,-0.98,0.5149731513256102
-0.19999999999999996,-0.98,0.5407406690931377
-0.17999999999999994,-0.98,0.5579803834862479
-0.16000000000000003,-0.98,0.5664204139104556
-0.14,-0.98,0.5659276560441404
-0.12,-0.98,0.5565098809732151
-0.09999999999999998,-0.98,0.5383156126364533
-0.07999999999999996,-0.98,0.5116317855142551
-0.05999999999999994,-0.98,0.47687921950048345
-0.040000000000000036,-0.98,0.434605983321352
-0.020000000000000018,-0.98,0.38547875116421215
0.0,-0.98,0.3302722888273685
0.020000000000000018,-0.98,0.2698572352006155
0.040000000000000036,-0.98,0.20518637176985016
0.06000000000000005,-0.98,0.137279596683877
0.08000000000000007,-0.98,0.06720784035134297
0.10000000000000009,-0.98,-0.0039238237715495256
0.1200000000000001,-0.98,-0.07499360684958598
0.14000000000000012,-0.98,-0.14488069594859523
0.15999999999999992,-0.98,-0.21248292992496248
0.17999999999999994,-0.98,-0.27673418116526316
0.19999999999999996,-0.98,-0.336621169055601
0.21999999999999997,-0.98,-0.3911994400221928
0.24,-0.98,-0.4396082621284166
0.26,-0.98,-0.4810841993316285
0.28,-0.98,-0.5149731513256101
0.30000000000000004,-0.98,-0.5407406690931377
0.32000000000000006,-0.98,-0.5579803834862479
0.3400000000000001,-0.98,-0.5664204139104553
0.3600000000000001,-0.98,-0.5659276560441405
0.3800000000000001,-0.98,-0.556509880973215
0.40000000000000013,-0.98,-0.5383156126364534
0.41999999999999993,-0.98,-0.5116317855142551
0.43999999999999995,-0.98,-0.47687921950048356
0.45999999999999996,-0.98,-0.4346059833213518
0.48,-0.98,-0.385478751164212
0.5,-0.98,-0.3302722888273686
0.52,-0.98,-0.2698572352006155
0.54,-0.98,-0.20518637176985005
0.56,-0.98,-0.13727959668387696
0.5800000000000001,-0.98,-0.06720784035134296
0.6000000000000001,-0.98,0.003923823771549567
0.6200000000000001,-0.98,0.074993606849586
0.6400000000000001,-0.98,0.14488069594859523
0.6600000000000001,-0.98,0.2124829299249625
0.6799999999999999,-0.98,0.27673418116526327
0.7,-0.98,0.33662116905560113
0.72,-0.98,0.39119944002219287
0.74,-0.98,0.4396082621284165
0.76,-0.98,0.4810841993316287
0.78,-0.98,0.51497315132561
0.8,-0.98,0.5407406690931377
0.8200000000000001,-0.98,0.557980383486248
0.8400000000000001,-0.98,0.5664204139104555
0.8600000000000001,-0.98,0.5659276560441406
0.8800000000000001,-0.98,0.556509880973215
0.9000000000000001,-0.98,0.5383156126364534
0.9199999999999999,-0.98,0.511631785514255
0.94,-0.98,0.4768792195004834
0.96,-0.98,0.4346059833213517
0.98,-0.98,0.38547875116421226
1.0,-0.98,0.3302722888273685

-1.0,-0.96,0.26039283410669367
-0.98,-0.96,0.20518637176985016
-0.96,-0.96,0.14674399777779884
-0.94,-0.96,0.08598738328017648
-0.92,-0.96,0.023874696381852696
-0.9,-0.96,-0.03861450874046529
-0.88,-0.96,-0.10049473999275667
-0.86,-0.96,-0.16079010916271455
-0.84,-0.96,-0.21854972225982083
-0.8200000000000001,-0.96,-0.27286267568161415
-0.8,-0.96,-0.3228724217076467
-0.78,-0.96,-0.3677902767687142
-0.76,-0.96,-0.40690785945787716
-0.74,-0.96,-0.4396082621284164
-0.72,-0.96,-0.4653757798959439
-0.7,-0.96,-0.4838040436124968
-0.6799999999999999,-0.96,-0.4946024285507534
-0.6599999999999999,-0.96,-0.49760063772959506
-0.64,-0.96,-0.4927513875992286
-0.62,-0.96,-0.48013115373101145
-0.6,-0.96,-0.45993896475200785
-0.5800000000000001,-0.96,-0.4324932635446453
-0.56,-0.96,-0.39822688521223143
-0.54,-0.96,-0.3576802310108102
-0.52,-0.96,-0.31149274589853515
-0.5,-0.96,-0.26039283410669367
-0.48,-0.96,-0.2051863717698502
-0.45999999999999996,-0.96,-0.14674399777779895
-0.43999999999999995,-0.96,-0.0859873832801765
-0.42000000000000004,-0.96,-0.023874696381852627
-0.4,-0.96,0.038614508740465334
-0.38,-0.96,0.10049473999275672
-0.36,-0.96,0.16079010916271463
-0.33999999999999997,-0.96,0.21854972225982097
-0.31999999999999995,-0.96,0.2728626756816143
-0.29999999999999993,-0.96,0.32287242170764685
-0.28,-0.96,0.3677902767687142
-0.26,-0.96,0.40690785945787705
-0.24,-0.96,0.4396082621284164
-0.21999999999999997,-0.96,0.46537577989594403
-0.19999999999999996,-0.96,0.4838040436124967
-0.17999999999999994,-0.96,0.49460242855075354
-0.16000000000000003,-0.96,0.49760063772959495
-0.14,-0.96,0.49275138759922865
-0.12,-0.96,0.48013115373101156
-0.09999999999999998,-0.96,0.4599389647520077
-0.07999999999999996,-0.96,0.4324932635446452
-0.05999999999999994,-0.96,0.39822688521223143
-0.040000000000000036,-0.96,0.35768023101081015
-0.020000000000000018,-0.96,0.31149274589853515
0.0,-0.96,0.26039283410669367
0.020000000000000018,-0.96,0.2051863717698502
0.040000000000000036,-0.96,0.14674399777779887
0.06000000000000005,-0.96,0.08598738328017641
0.08000000000000007,-0.96,0.023874696381852606
0.10000000000000009,-0.96,-0.03861450874046532
0.1200000000000001,-0.96,-0.10049473999275677
0.14000000000000012,-0.96,-0.16079010916271463
0.15999999999999992,-0.96,-0.21854972225982092
0.17999999999999994,-0.96,-0.27286267568161415
0.19999999999999996,-0.96,-0.3228724217076468
0.21999999999999997,-0.96,-0.3677902767687142
0.24,-0.96,-0.4069078594578771
0.26,-0.96,-0.4396082621284164
0.28,-0.96,-0.46537577989594403
0.30000000000000004,-0.96,-0.4838040436124966
0.32000000000000006,-0.96,-0.49460242855075326
0.3400000000000001,-0.96,-0.4976006377295951
0.3600000000000001,-0.96,-0.4927513875992285
0.3800000000000001,-0.96,-0.4801311537310115
0.40000000000000013,-0.96,-0.4599389647520077
0.41999999999999993,-0.96,-0.4324932635446453
0.43999999999999995,-0.96,-0.3982268852122313
0.45999999999999996,-0.96,-0.35768023101081
0.48,-0.96,-0.31149274589853526
0.5,-0.96,-0.26039283410669367
0.52,-0.96,-0.20518637176985005
0.54,-0.96,-0.14674399777779884
0.56,-0.96,-0.0859873832801764
0.5800000000000001,-0.96,-0.023874696381852568
0.6000000000000001,-0.96,0.03861450874046535
0.6200000000000001,-0.96,0.10049473999275677
0.6400000000000001,-0.96,0.16079010916271466
0.6600000000000001,-0.96,0.21854972225982097
0.6799999999999999,-0.96,0.2728626756816142
0.7,-0.96,0.32287242170764685
0.72,-0.96,0.3677902767687141
0.74,-0.96,0.4069078594578773
0.76,-0.96,0.4396082621284163
0.78,-0.96,0.46537577989594403
0.8,-0.96,0.4838040436124968
0.8200000000000001,-0.96,0.4946024285507534
0.8400000000000001,-0.96,0.4976006377295952
0.8600000000000001,-0.96,0.49275138759922843
0.8800000000000001,-0.96,0.48013115373101145
0.9000000000000001,-0.96,0.4599389647520076
0.9199999999999999,-0.96,0.4324932635446451
0.94,-0.96,0.3982268852122312
0.96,-0.96,0.3576802310108102
0.98,-0.96,0.3114927458985352
1.0,-0.96,0.26039283410669367

-1.0,-0.94,0.18640682884101673
-0.98,-0.94,0.13727959668387701
-0.96,-0.94,0.0859873832801765
-0.94,-0.94,0.03333909747577456
-0.92,-0.94,-0.01983496581163186
-0.9,-0.94,-0.07269621983935458
-0.88,-0.94,-0.12441101105359392
-0.86,-0.94,-0.17416376630398245
-0.84,-0.94,-0.2211698549193664
-0.8200000000000001,-0.94,-0.2646879628022044
-0.8,-0.94,-0.30403178339472725
-0.78,-0.94,-0.3385808411433312
-0.76,-0.94,-0.36779027676871406
-0.74,-0.94,-0.3911994400221926
-0.72,-0.94,-0.40843915441530315
-0.7,-0.94,-0.41923753935355995
-0.6799999999999999,-0.94,-0.423424297855844
-0.6599999999999999,-0.94,-0.4209334022395266
-0.64,-0.94,-0.4118041354164658
-0.62,-0.94,-0.3961804713780212
-0.6,-0.94,-0.37430880463920324
-0.5800000000000001,-0.94,-0.3465340644499837
-0.56,-0.94,-0.3132942750549718
-0.54,-0.94,-0.2751136477894147
-0.52,-0.94,-0.23259431395329164
-0.5,-0.94,-0.18640682884101678
-0.48,-0.94,-0.13727959668387707
-0.45999999999999996,-0.94,-0.0859873832801765
-0.43999999999999995,-0.94,-0.0333390974757745
-0.42000000000000004,-0.94,0.01983496581163188
-0.4,-0.94,0.07269621983935459
-0.38,-0.94,0.12441101105359399
-0.36,-0.94,0.17416376630398256
-0.33999999999999997,-0.94,0.22116985491936644
-0.31999999999999995,-0.94,0.2646879628022045
-0.29999999999999993,-0.94,0.30403178339472736
-0.28,-0.94,0.3385808411433311
-0.26,-0.94,0.36779027676871406
-0.24,-0.94,0.3911994400221927
-0.21999999999999997,-0.94,0.4084391544153031
-0.19999999999999996,-0.94,0.4192375393535601
-0.17999999999999994,-0.94,0.42342429785584396
-0.16000000000000003,-0.94,0.4209334022395266
-0.14,-0.94,0.4118041354164659
-0.12,-0.94,0.3961804713780211
-0.09999999999999998,-0.94,0.3743088046392031
-0.07999999999999996,-0.94,0.3465340644499837
-0.05999999999999994,-0.94,0.3132942750549718
-0.040000000000000036,-0.94,0.2751136477894147
-0.020000000000000018,-0.94,0.23259431395329164
0.0,-0.94,0.18640682884101678
0.020000000000000018,-0.94,0.13727959668387701
0.040000000000000036,-0.94,0.08598738328017642
0.06000000000000005,-0.94,0.03333909747577449
0.08000000000000007,-0.94,-0.019834965811631886
0.10000000000000009,-0.94,-0.07269621983935465
0.1200000000000001,-0.94,-0.12441101105359399
0.14000000000000012,-0.94,-0.17416376630398256
0.15999999999999992,-0.94,-0.22116985491936636
0.17999999999999994,-0.94,-0.2646879628022045
0.19999999999999996,-0.94,-0.3040317833947272
0.21999999999999997,-0.94,-0.3385808411433311
0.24,-0.94,-0.36779027676871406
0.26,-0.94,-0.3911994400221927
0.28,-0.94,-0.408439154415303
0.30000000000000004,-0.94,-0.4192375393535598
0.32000000000000006,-0.94,-0.42342429785584407
0.3400000000000001,-0.94,-0.42093340223952647
0.3600000000000001,-0.94,-0.4118041354164658
0.3800000000000001,-0.94,-0.3961804713780211
0.40000000000000013,-0.94,-0.3743088046392032
0.41999999999999993,-0.94,-0.34653406444998364
0.43999999999999995,-0.94,-0.3132942750549717
0.45999999999999996,-0.94,-0.2751136477894148
0.48,-0.94,-0.2325943139532916
0.5,-0.94,-0.18640682884101667
0.52,-0.94,-0.13727959668387701
0.54,-0.94,-0.08598738328017642
0.56,-0.94,-0.03333909747577446
0.5800000000000001,-0.94,0.0198349658116319
0.6000000000000001,-0.94,0.07269621983935463
0.6200000000000001,-0.94,0.12441101105359405
0.6400000000000001,-0.94,0.17416376630398261
0.6600000000000001,-0.94,0.22116985491936642
0.6799999999999999,-0.94,0.2646879628022046
0.7,-0.94,0.3040317833947272
0.72,-0.94,0.3385808411433312
0.74,-0.94,0.36779027676871395
0.76,-0.94,0.39119944002219265
0.78,-0.94,0.40843915441530315
0.8,-0.94,0.41923753935355995
0.8200000000000001,-0.94,0.4234242978558441
0.8400000000000001,-0.94,0.4209334022395264
0.8600000000000001,-0.94,0.4118041354164658
0.8800000000000001,-0.94,0.39618047137802104
0.9000000000000001,-0.94,0.374308804639203
0.9199999999999999,-0.94,0.3465340644499836
0.94,-0.94,0.31329427505497187
0.96,-0.94,0.2751136477894148
0.98,-0.94,0.2325943139532916
1.0,-0.94,0.18640682884101673

-1.0,-0.92,0.10948107653047492
-0.98,-0.92,0.06720784035134306
-0.96,-0.92,0.023874696381852675
-0.94,-0.92,-0.019834965811631855
-0.92,-0.92,-0.0632318187454327
-0.9,-0.92,-0.1056314681247605
-0.88,-0.92,-0.1463652461505804
-0.86,-0.92,-0.18479075681024584
-0.84,-0.92,-0.22030200684636606
-0.8200000000000001,-0.92,-0.2523389626324794
-0.8,-0.92,-0.28039638223788893
-0.78,-0.92,-0.30403178339472714
-0.76,-0.92,-0.3228724217076466
-0.74,-0.92,-0.33662116905560074
-0.72,-0.92,-0.3450611994798087
-0.7,-0.92,-0.34805940865865054
-0.6799999999999999,-0.92,-0.3455685130423332
-0.6599999999999999,-0.92,-0.3376277955427147
-0.64,-0.92,-0.324362486018319
-0.62,-0.92,-0.30598178632465745
-0.6,-0.92,-0.28277557107599693
-0.5800000000000001,-0.92,-0.2551098161495296
-0.56,-0.92,-0.22342082702716695
-0.54,-0.92,-0.18820835799745322
-0.52,-0.92,-0.1500277307318962
-0.5,-0.92,-0.10948107653047495
-0.48,-0.92,-0.06720784035134307
-0.45999999999999996,-0.92,-0.023874696381852637
-0.43999999999999995,-0.92,0.019834965811631876
-0.42000000000000004,-0.92,0.06323181874543271
-0.4,-0.92,0.10563146812476054
-0.38,-0.92,0.14636524615058052
-0.36,-0.92,0.18479075681024593
-0.33999999999999997,-0.92,0.22030200684636614
-0.31999999999999995,-0.92,0.2523389626324795
-0.29999999999999993,-0.92,0.2803963822378888
-0.28,-0.92,0.30403178339472714
-0.26,-0.92,0.3228724217076467
-0.24,-0.92,0.33662116905560074
-0.21999999999999997,-0.92,0.34506119947980884
-0.19999999999999996,-0.92,0.34805940865865054
-0.17999999999999994,-0.92,0.3455685130423331
-0.16000000000000003,-0.92,0.33762779554271477
-0.14,-0.92,0.32436248601831896
-0.12,-0.92,0.3059817863246573
-0.09999999999999998,-0.92,0.28277557107599693
-0.07999999999999996,-0.92,0.2551098161495296
-0.05999999999999994,-0.92,0.22342082702716698
-0.040000000000000036,-0.92,0.1882083579974532
-0.020000000000000018,-0.92,0.15002773073189618
0.0,-0.92,0.10948107653047492
0.020000000000000018,-0.92,0.06720784035134302
0.040000000000000036,-0.92,0.023874696381852627
0.06000000000000005,-0.92,-0.019834965811631876
0.08000000000000007,-0.92,-0.06323181874543275
0.10000000000000009,-0.92,-0.10563146812476057
0.1200000000000001,-0.92,-0.14636524615058052
0.14000000000000012,-0.92,-0.18479075681024587
0.15999999999999992,-0.92,-0.2203020068463661
0.17999999999999994,-0.92,-0.2523389626324794
0.19999999999999996,-0.92,-0.2803963822378888
0.21999999999999997,-0.92,-0.30403178339472714
0.24,-0.92,-0.32287242170764674
0.26,-0.92,-0.33662116905560063
0.28,-0.92,-0.34506119947980857
0.30000000000000004,-0.92,-0.3480594086586506
0.32000000000000006,-0.92,-0.34556851304233316
0.3400000000000001,-0.92,-0.33762779554271477
0.3600000000000001,-0.92,-0.32436248601831896
0.3800000000000001,-0.92,-0.3059817863246574
0.40000000000000013,-0.92,-0.28277557107599693
0.41999999999999993,-0.92,-0.2551098161495296
0.43999999999999995,-0.92,-0.22342082702716703
0.45999999999999996,-0.92,-0.18820835799745322
0.48,-0.92,-0.15002773073189613
0.5,-0.92,-0.10948107653047492
0.52,-0.92,-0.067207840351343
0.54,-0.92,-0.023874696381852613
0.56,-0.92,0.019834965811631897
0.5800000000000001,-0.92,0.06323181874543275
0.6000000000000001,-0.92,0.1056314681247606
0.6200000000000001,-0.92,0.14636524615058055
0.6400000000000001,-0.92,0.1847907568102459
0.6600000000000001,-0.92,0.22030200684636617
0.6799999999999999,-0.92,0.2523389626324794
0.7,-0.92,0.28039638223788893
0.72,-0.92,0.3040317833947271
0.74,-0.92,0.32287242170764663
0.76,-0.92,0.3366211690556008
0.78,-0.92,0.3450611994798087
0.8,-0.92,0.34805940865865065
0.8200000000000001,-0.92,0.345568513042333
0.8400000000000001,-0.92,0.33762779554271466
0.8600000000000001,-0.92,0.32436248601831896
0.8800000000000001,-0.92,0.3059817863246572
0.9000000000000001,-0.92,0.2827755710759968
0.9199999999999999,-0.92,0.25510981614952966
0.94,-0.92,0.22342082702716703
0.96,-0.92,0.18820835799745317
0.98,-0.92,0.15002773073189615
1.0,-0.92,0.10948107653047492

-1.0,-0.9,0.030828742242222405
-0.98,-0.9,-0.003923823771549449
-0.96,-0.9,-0.038614508740465285
-0.94,-0.9,-0.07269621983935454
-0.92,-0.9,-0.1056314681247605
-0.9,-0.9,-0.1369008450566586
-0.88,-0.9,-0.16601121388141243
-0.86,-0.9,-0.19250348669296402
-0.84,-0.9,-0.21595986452335886
-0.8200000000000001,-0.9,-0.2360104262820505
-0.8,-0.9,-0.2523389626324793
-0.78,-0.9,-0.2646879628022043
-0.76,-0.9,-0.27286267568161376
-0.74,-0.9,-0.27673418116526266
-0.72,-0.9,-0.27624142329894824
-0.7,-0.9,-0.27139217316858205
-0.6799999999999999,-0.9,-0.2622629063455213
-0.6599999999999999,-0.9,-0.2489975968211256
-0.64,-0.9,-0.23180544645090628
-0.62,-0.9,-0.21095758571629464
-0.6,-0.9,-0.1867827978349837
-0.5800000000000001,-0.9,-0.1596623336531801
-0.56,-0.9,-0.13002389909201095
-0.54,-0.9,-0.0983349099696483
-0.52,-0.9,-0.06509512057463646
-0.5,-0.9,-0.030828742242222432
-0.48,-0.9,0.003923823771549484
-0.45999999999999996,-0.9,0.0386145087404653
-0.43999999999999995,-0.9,0.07269621983935456
-0.42000000000000004,-0.9,0.10563146812476053
-0.4,-0.9,0.13690084505665864
-0.38,-0.9,0.16601121388141252
-0.36,-0.9,0.19250348669296413
-0.33999999999999997,-0.9,0.21595986452335897
-0.31999999999999995,-0.9,0.23601042628205038
-0.29999999999999993,-0.9,0.2523389626324793
-0.28,-0.9,0.26468796280220436
-0.26,-0.9,0.2728626756816138
-0.24,-0.9,0.27673418116526277
-0.21999999999999997,-0.9,0.27624142329894835
-0.19999999999999996,-0.9,0.271392173168582
-0.17999999999999994,-0.9,0.2622629063455213
-0.16000000000000003,-0.9,0.24899759682112557
-0.14,-0.9,0.23180544645090614
-0.12,-0.9,0.21095758571629464
-0.09999999999999998,-0.9,0.1867827978349837
-0.07999999999999996,-0.9,0.15966233365318014
-0.05999999999999994,-0.9,0.1300238990920109
-0.040000000000000036,-0.9,0.09833490996964829
-0.020000000000000018,-0.9,0.06509512057463643
0.0,-0.9,0.03082874224222237
0.020000000000000018,-0.9,-0.003923823771549498
0.040000000000000036,-0.9,-0.03861450874046528
0.06000000000000005,-0.9,-0.07269621983935462
0.08000000000000007,-0.9,-0.10563146812476053
0.10000000000000009,-0.9,-0.13690084505665867
0.1200000000000001,-0.9,-0.16601121388141252
0.14000000000000012,-0.9,-0.1925034866929641
0.15999999999999992,-0.9,-0.21595986452335883
0.17999999999999994,-0.9,-0.23601042628205043
0.19999999999999996,-0.9,-0.2523389626324793
0.21999999999999997,-0.9,-0.26468796280220436
0.24,-0.9,-0.27286267568161376
0.26,-0.9,-0.2767341811652625
0.28,-0.9,-0.27624142329894835
0.30000000000000004,-0.9,-0.27139217316858205
0.32000000000000006,-0.9,-0.2622629063455213
0.3400000000000001,-0.9,-0.24899759682112557
0.3600000000000001,-0.9,-0.23180544645090623
0.3800000000000001,-0.9,-0.21095758571629464
0.40000000000000013,-0.9,-0.1867827978349837
0.41999999999999993,-0.9,-0.15966233365318017
0.43999999999999995,-0.9,-0.13002389909201092
0.45999999999999996,-0.9,-0.09833490996964828
0.48,-0.9,-0.06509512057463643
0.5,-0.9,-0.030828742242222366
0.52,-0.9,0.003923823771549477
0.54,-0.9,0.03861450874046532
0.56,-0.9,0.07269621983935462
0.5800000000000001,-0.9,0.10563146812476057
0.6000000000000001,-0.9,0.13690084505665867
0.6200000000000001,-0.9,0.1660112138814125
0.6400000000000001,-0.9,0.19250348669296413
0.6600000000000001,-0.9,0.21595986452335883
0.6799999999999999,-0.9,0.23601042628205043
0.7,-0.9,0.2523389626324793
0.72,-0.9,0.2646879628022043
0.74,-0.9,0.2728626756816138
0.76,-0.9,0.2767341811652626
0.78,-0.9,0.2762414232989484
0.8,-0.9,0.27139217316858194
0.8200000000000001,-0.9,0.26226290634552124
0.8400000000000001,-0.9,0.24899759682112554
0.8600000000000001,-0.9,0.23180544645090612
0.8800000000000001,-0.9,0.21095758571629458
0.9000000000000001,-0.9,0.18678279783498375
0.9199999999999999,-0.9,0.15966233365318017
0.94,-0.9,0.1300238990920109
0.96,-0.9,0.09833490996964828
0.98,-0.9,0.06509512057463643
1.0,-0.9,0.030828742242222405

-1.0,-0.88,-0.04830977972738797
-0.98,-0.88,-0.07499360684958592
-0.96,-0.88,-0.10049473999275663
-0.94,-0.88,-0.12441101105359392
-0.92,-0.88,-0.1463652461505804
-0.9,-0.88,-0.16601121388141243
-0.88,-0.88,-0.18303908559904222
-0.86,-0.88,-0.19718032159452545
-0.84,-0.88,-0.20821190612864834
-0.8200000000000001,-0.88,-0.21595986452335864
-0.8,-0.88,-0.22030200684636578
-0.78,-0.88,-0.2211698549193659
-0.76,-0.88,-0.21854972225982036
-0.74,-0.88,-0.21248292992496146
-0.72,-0.88,-0.20306515485403626
-0.7,-0.88,-0.19044492098581908
-0.6799999999999999,-0.88,-0.17482125694737438
-0.6599999999999999,-0.88,-0.15644055725371278
-0.64,-0.88,-0.13559269651910102
-0.62,-0.88,-0.11260645796123234
-0.6,-0.88,-0.0878443482934777
-0.5800000000000001,-0.88,-0.06169688077746491
-0.56,-0.88,-0.03457641659566128
-0.54,-0.88,-0.006910661669194025
-0.52,-0.88,0.020864078520025524
-0.5,-0.88,0.048309779727388
-0.48,-0.88,0.07499360684958595
-0.45999999999999996,-0.88,0.10049473999275668
-0.43999999999999995,-0.88,0.12441101105359394
-0.42000000000000004,-0.88,0.14636524615058047
-0.4,-0.88,0.1660112138814125
-0.38,-0.88,0.1830390855990423
-0.36,-0.88,0.1971803215945256
-0.33999999999999997,-0.88,0.2082119061286483
-0.31999999999999995,-0.88,0.21595986452335866
-0.29999999999999993,-0.88,0.22030200684636586
-0.28,-0.88,0.2211698549193659
-0.26,-0.88,0.21854972225982042
-0.24,-0.88,0.2124829299249615
-0.21999999999999997,-0.88,0.20306515485403615
-0.19999999999999996,-0.88,0.19044492098581908
-0.17999999999999994,-0.88,0.17482125694737438
-0.16000000000000003,-0.88,0.15644055725371264
-0.14,-0.88,0.135592696519101
-0.12,-0.88,0.11260645796123236
-0.09999999999999998,-0.88,0.08784434829347773
-0.07999999999999996,-0.88,0.06169688077746486
-0.05999999999999994,-0.88,0.034576416595661276
-0.040000000000000036,-0.88,0.006910661669194025
-0.020000000000000018,-0.88,-0.020864078520025586
0.0,-0.88,-0.04830977972738802
0.020000000000000018,-0.88,-0.07499360684958592
0.040000000000000036,-0.88,-0.10049473999275671
0.06000000000000005,-0.88,-0.12441101105359391
0.08000000000000007,-0.88,-0.14636524615058052
0.10000000000000009,-0.88,-0.1660112138814125
0.1200000000000001,-0.88,-0.1830390855990423
0.14000000000000012,-0.88,-0.19718032159452548
0.15999999999999992,-0.88,-0.2082119061286483
0.17999999999999994,-0.88,-0.2159598645233586
0.19999999999999996,-0.88,-0.22030200684636583
0.21999999999999997,-0.88,-0.22116985491936586
0.24,-0.88,-0.21854972225982025
0.26,-0.88,-0.2124829299249615
0.28,-0.88,-0.20306515485403623
0.30000000000000004,-0.88,-0.19044492098581908
0.32000000000000006,-0.88,-0.17482125694737438
0.3400000000000001,-0.88,-0.1564405572537127
0.3600000000000001,-0.88,-0.13559269651910105
0.3800000000000001,-0.88,-0.11260645796123234
0.40000000000000013,-0.88,-0.08784434829347779
0.41999999999999993,-0.88,-0.06169688077746488
0.43999999999999995,-0.88,-0.0345764165956613
0.45999999999999996,-0.88,-0.006910661669194039
0.48,-0.88,0.020864078520025593
0.5,-0.88,0.048309779727387966
0.52,-0.88,0.07499360684958598
0.54,-0.88,0.10049473999275671
0.56,-0.88,0.12441101105359396
0.5800000000000001,-0.88,0.1463652461505805
0.6000000000000001,-0.88,0.16601121388141246
0.6200000000000001,-0.88,0.1830390855990423
0.6400000000000001,-0.88,0.19718032159452545
0.6600000000000001,-0.88,0.2082119061286483
0.6799999999999999,-0.88,0.21595986452335864
0.7,-0.88,0.22030200684636578
0.72,-0.88,0.22116985491936586
0.74,-0.88,0.2185497222598203
0.76,-0.88,0.21248292992496154
0.78,-0.88,0.20306515485403612
0.8,-0.88,0.19044492098581903
0.8200000000000001,-0.88,0.17482125694737438
0.8400000000000001,-0.88,0.15644055725371264
0.8600000000000001,-0.88,0.135592696519101
0.8800000000000001,-0.88,0.11260645796123242
0.9000000000000001,-0.88,0.08784434829347776
0.9199999999999999,-0.88,0.06169688077746486
0.94,-0.88,0.034576416595661255
0.96,-0.88,0.006910661669194025
0.98,-0.88,-0.02086407852002556
1.0,-0.88,-0.04830977972738797

-1.0,-0.86,-0.1266864276118339
-0.98,-0.86,-0.1448806959485951
-0.96,-0.86,-0.16079010916271452
-0.94,-0.86,-0.17416376630398245
-0.92,-0.86,-0.1847907568102458
-0.9,-0.86,-0.19250348669296402
-0.88,-0.86,-0.19718032159452545
-0.86,-0.86,-0.19874750503472646
-0.84,-0.86,-0.19718032159452517
-0.8200000000000001,-0.86,-0.19250348669296363
-0.8,-0.86,-0.18479075681024526
-0.78,-0.86,-0.1741637663039819
-0.76,-0.86,-0.1607901091627137
-0.74,-0.86,-0.14488069594859407
-0.72,-0.86,-0.12668642761183233
-0.7,-0.86,-0.1064942386328285
-0.6799999999999999,-0.86,-0.08462257189401048
-0.6599999999999999,-0.86,-0.06141635664534968
-0.64,-0.86,-0.037241568764038654
-0.62,-0.86,-0.012479459096283965
-0.6,-0.86,0.012479459096286574
-0.5800000000000001,-0.86,0.037241568764041263
-0.56,-0.86,0.06141635664535218
-0.54,-0.86,0.08462257189401262
-0.52,-0.86,0.10649423863283045
-0.5,-0.86,0.1266864276118339
-0.48,-0.86,0.14488069594859518
-0.45999999999999996,-0.86,0.1607901091627145
-0.43999999999999995,-0.86,0.17416376630398248
-0.42000000000000004,-0.86,0.18479075681024582
-0.4,-0.86,0.1925034866929641
-0.38,-0.86,0.1971803215945256
-0.36,-0.86,0.1987475050347264
-0.33999999999999997,-0.86,0.19718032159452523
-0.31999999999999995,-0.86,0.19250348669296374
-0.29999999999999993,-0.86,0.1847907568102453
-0.28,-0.86,0.17416376630398198
-0.26,-0.86,0.1607901091627137
-0.24,-0.86,0.14488069594859398
-0.21999999999999997,-0.86,0.1266864276118323
-0.19999999999999996,-0.86,0.1064942386328285
-0.17999999999999994,-0.86,0.08462257189401036
-0.16000000000000003,-0.86,0.061416356645349654
-0.14,-0.86,0.03724156876403866
-0.12,-0.86,0.012479459096283993
-0.09999999999999998,-0.86,-0.012479459096286588
-0.07999999999999996,-0.86,-0.037241568764041263
-0.05999999999999994,-0.86,-0.061416356645352166
-0.040000000000000036,-0.86,-0.0846225718940127
-0.020000000000000018,-0.86,-0.10649423863283047
0.0,-0.86,-0.12668642761183388
0.020000000000000018,-0.86,-0.14488069594859515
0.040000000000000036,-0.86,-0.1607901091627145
0.06000000000000005,-0.86,-0.1741637663039826
0.08000000000000007,-0.86,-0.18479075681024582
0.10000000000000009,-0.86,-0.1925034866929641
0.1200000000000001,-0.86,-0.19718032159452548
0.14000000000000012,-0.86,-0.19874750503472638
0.15999999999999992,-0.86,-0.19718032159452517
0.17999999999999994,-0.86,-0.19250348669296366
0.19999999999999996,-0.86,-0.18479075681024526
0.21999999999999997,-0.86,-0.17416376630398184
0.24,-0.86,-0.1607901091627137
0.26,-0.86,-0.14488069594859404
0.28,-0.86,-0.1266864276118323