TITLE = "Solution" 
VARIABLES = "x", "y", "sol" 
ZONE STRANDID=1, SOLUTIONTIME= 0.3300000000000001, I= 101, J =101, DATAPACKING=POINT 
-1.0,-1.0,0.6529590405101119
-0.98,-1.0,0.700721437992182
-0.96,-1.0,0.7374330398064181
-0.94,-1.0,0.7625148820617615
-0.92,-1.0,0.7755714091226796
-0.9,-1.0,0.7763967117578302
-0.88,-1.0,0.7649777744516459
-0.86,-1.0,0.7414946806667871
-0.84,-1.0,0.7063177728203612
-0.8200000000000001,-1.0,0.6600018117627726
-0.8,-1.0,0.6032772278677138
-0.78,-1.0,0.5370386017088333
-0.76,-1.0,0.4623305559896946
-0.74,-1.0,0.3803312812197109
-0.72,-1.0,0.29233395494599784
-0.7,-1.0,0.1997263475709462
-0.6799999999999999,-1.0,0.10396893638396396
-0.6599999999999999,-1.0,0.0065718729621745495
-0.64,-1.0,-0.09092883282207502
-0.62,-1.0,-0.1869955365944686
-0.6,-1.0,-0.2801132090490485
-0.5800000000000001,-1.0,-0.3688133288654047
-0.56,-1.0,-0.4516970421671501
-0.54,-1.0,-0.5274572232831862
-0.52,-1.0,-0.5948990889003734
-0.5,-1.0,-0.652959040510112
-0.48,-1.0,-0.700721437992182
-0.45999999999999996,-1.0,-0.7374330398064181
-0.43999999999999995,-1.0,-0.7625148820617615
-0.42000000000000004,-1.0,-0.7755714091226796
-0.4,-1.0,-0.7763967117578305
-0.38,-1.0,-0.764977774451646
-0.36,-1.0,-0.7414946806667873
-0.33999999999999997,-1.0,-0.7063177728203611
-0.31999999999999995,-1.0,-0.6600018117627728
-0.29999999999999993,-1.0,-0.603277227867714
-0.28,-1.0,-0.5370386017088334
-0.26,-1.0,-0.4623305559896945
-0.24,-1.0,-0.3803312812197108
-0.21999999999999997,-1.0,-0.2923339549459977
-0.19999999999999996,-1.0,-0.19972634757094604
-0.17999999999999994,-1.0,-0.10396893638396394
-0.16000000000000003,-1.0,-0.006571872962174539
-0.14,-1.0,0.090928832822075
-0.12,-1.0,0.1869955365944686
-0.09999999999999998,-1.0,0.2801132090490485
-0.07999999999999996,-1.0,0.36881332886540447
-0.05999999999999994,-1.0,0.45169704216715006
-0.040000000000000036,-1.0,0.5274572232831858
-0.020000000000000018,-1.0,0.5948990889003734
0.0,-1.0,0.6529590405101118
0.020000000000000018,-1.0,0.700721437992182
0.040000000000000036,-1.0,0.7374330398064178
0.06000000000000005,-1.0,0.7625148820617617
0.08000000000000007,-1.0,0.7755714091226797
0.10000000000000009,-1.0,0.7763967117578304
0.1200000000000001,-1.0,0.764977774451646
0.14000000000000012,-1.0,0.7414946806667868
0.15999999999999992,-1.0,0.7063177728203611
0.17999999999999994,-1.0,0.6600018117627726
0.19999999999999996,-1.0,0.6032772278677139
0.21999999999999997,-1.0,0.5370386017088332
0.24,-1.0,0.4623305559896945
0.26,-1.0,0.38033128121971066
0.28,-1.0,0.29233395494599757
0.30000000000000004,-1.0,0.19972634757094596
0.32000000000000006,-1.0,0.10396893638396391
0.3400000000000001,-1.0,0.006571872962174511
0.3600000000000001,-1.0,-0.09092883282207499
0.3800000000000001,-1.0,-0.1869955365944686
0.40000000000000013,-1.0,-0.28011320904904846
0.41999999999999993,-1.0,-0.36881332886540463
0.43999999999999995,-1.0,-0.4516970421671501
0.45999999999999996,-1.0,-0.5274572232831859
0.48,-1.0,-0.5948990889003735
0.5,-1.0,-0.652959040510112
0.52,-1.0,-0.7007214379921818
0.54,-1.0,-0.7374330398064177
0.56,-1.0,-0.7625148820617615
0.5800000000000001,-1.0,-0.7755714091226794
0.6000000000000001,-1.0,-0.7763967117578304
0.6200000000000001,-1.0,-0.764977774451646
0.6400000000000001,-1.0,-0.7414946806667869
0.6600000000000001,-1.0,-0.7063177728203609
0.6799999999999999,-1.0,-0.6600018117627725
0.7,-1.0,-0.6032772278677137
0.72,-1.0,-0.5370386017088332
0.74,-1.0,-0.46233055598969447
0.76,-1.0,-0.38033128121971077
0.78,-1.0,-0.2923339549459978
0.8,-1.0,-0.1997263475709462
0.8200000000000001,-1.0,-0.10396893638396401
0.8400000000000001,-1.0,-0.006571872962174643
0.8600000000000001,-1.0,0.09092883282207488
0.8800000000000001,-1.0,0.18699553659446858
0.9000000000000001,-1.0,0.2801132090490484
0.9199999999999999,-1.0,0.3688133288654045
0.94,-1.0,0.45169704216715006
0.96,-1.0,0.5274572232831859
0.98,-1.0,0.5948990889003734
1.0,-1.0,0.6529590405101119

-1.0,-0.98,0.7007214379921819
-0.98,-0.98,0.7495299567313192
-0.96,-0.98,0.7865179403053104
-0.94,-0.98,0.8111020661176437
-0.92,-0.98,0.8228946278184128
-0.9,-0.98,0.8217096496650629
-0.88,-0.98,0.8075658194709433
-0.86,-0.98,0.7806861938873302
-0.84,-0.98,0.7414946806667867
-0.8200000000000001,-0.98,0.6906093533846765
-0.8,-0.98,0.6288327040496593
-0.78,-0.98,0.5571389873253301
-0.76,-0.98,0.4766588559521814
-0.74,-0.98,0.38866152967846834
-0.72,-0.98,0.2945347789065818
-0.7,-0.98,0.19576303872479
-0.6799999999999999,-0.98,0.09390399847913743
-0.6599999999999999,-0.98,-0.009435963918060815
-0.64,-0.98,-0.11262711552749964
-0.62,-0.98,-0.21404207024489222
-0.6,-0.98,-0.3120814536519879
-0.5800000000000001,-0.98,-0.4051991261065678
-0.56,-0.98,-0.4919265662882223
-0.54,-0.98,-0.5708960306568246
-0.52,-0.98,-0.6408621235852108
-0.5,-0.98,-0.700721437992182
-0.48,-0.98,-0.7495299567313193
-0.45999999999999996,-0.98,-0.7865179403053104
-0.43999999999999995,-0.98,-0.8111020661176436
-0.42000000000000004,-0.98,-0.8228946278184132
-0.4,-0.98,-0.821709649665063
-0.38,-0.98,-0.8075658194709435
-0.36,-0.98,-0.7806861938873298
-0.33999999999999997,-0.98,-0.7414946806667867
-0.31999999999999995,-0.98,-0.6906093533846768
-0.29999999999999993,-0.98,-0.6288327040496594
-0.28,-0.98,-0.5571389873253302
-0.26,-0.98,-0.4766588559521813
-0.24,-0.98,-0.38866152967846823
-0.21999999999999997,-0.98,-0.29453477890658153
-0.19999999999999996,-0.98,-0.19576303872478995
-0.17999999999999994,-0.98,-0.09390399847913736
-0.16000000000000003,-0.98,0.009435963918060843
-0.14,-0.98,0.11262711552749967
-0.12,-0.98,0.21404207024489216
-0.09999999999999998,-0.98,0.31208145365198775
-0.07999999999999996,-0.98,0.40519912610656766
-0.05999999999999994,-0.98,0.4919265662882219
-0.040000000000000036,-0.98,0.5708960306568245
-0.020000000000000018,-0.98,0.6408621235852107
0.0,-0.98,0.7007214379921819
0.020000000000000018,-0.98,0.7495299567313191
0.040000000000000036,-0.98,0.7865179403053105
0.06000000000000005,-0.98,0.8111020661176436
0.08000000000000007,-0.98,0.8228946278184129
0.10000000000000009,-0.98,0.8217096496650631
0.1200000000000001,-0.98,0.8075658194709431
0.14000000000000012,-0.98,0.7806861938873301
0.15999999999999992,-0.98,0.7414946806667867
0.17999999999999994,-0.98,0.6906093533846765
0.19999999999999996,-0.98,0.6288327040496592
0.21999999999999997,-0.98,0.5571389873253301
0.24,-0.98,0.47665885595218116
0.26,-0.98,0.3886615296784681
0.28,-0.98,0.2945347789065814
0.30000000000000004,-0.98,0.19576303872478987
0.32000000000000006,-0.98,0.09390399847913732
0.3400000000000001,-0.98,-0.009435963918060853
0.3600000000000001,-0.98,-0.11262711552749964
0.3800000000000001,-0.98,-0.2140420702448922
0.40000000000000013,-0.98,-0.3120814536519878
0.41999999999999993,-0.98,-0.4051991261065678
0.43999999999999995,-0.98,-0.491926566288222
0.45999999999999996,-0.98,-0.5708960306568246
0.48,-0.98,-0.6408621235852108
0.5,-0.98,-0.7007214379921819
0.52,-0.98,-0.749529956731319
0.54,-0.98,-0.7865179403053104
0.56,-0.98,-0.8111020661176433
0.5800000000000001,-0.98,-0.8228946278184129
0.6000000000000001,-0.98,-0.821709649665063
0.6200000000000001,-0.98,-0.8075658194709432
0.6400000000000001,-0.98,-0.7806861938873297
0.6600000000000001,-0.98,-0.7414946806667866
0.6799999999999999,-0.98,-0.6906093533846764
0.7,-0.98,-0.6288327040496592
0.72,-0.98,-0.55713898732533
0.74,-0.98,-0.4766588559521812
0.76,-0.98,-0.3886615296784683
0.78,-0.98,-0.29453477890658175
0.8,-0.98,-0.19576303872478998
0.8200000000000001,-0.98,-0.09390399847913745
0.8400000000000001,-0.98,0.009435963918060722
0.8600000000000001,-0.98,0.11262711552749956
0.8800000000000001,-0.98,0.21404207024489214
0.9000000000000001,-0.98,0.31208145365198764
0.9199999999999999,-0.98,0.4051991261065677
0.94,-0.98,0.49192656628822196
0.96,-0.98,0.5708960306568245
0.98,-0.98,0.6408621235852107
1.0,-0.98,0.7007214379921819

-1.0,-0.96,0.737433039806418
-0.98,-0.96,0.7865179403053104
-0.96,-0.96,0.8231989830425451
-0.94,-0.96,0.8468976860619618
-0.92,-0.96,0.8572403066600269
-0.9,-0.96,0.8540637355315257
-0.88,-0.96,0.8374180691007468
-0.86,-0.96,0.8075658194709427
-0.84,-0.96,0.7649777744516453
-0.8200000000000001,-0.96,0.7103255729536733
-0.8,-0.96,0.6444711128422926
-0.78,-0.96,0.5684529582930071
-0.76,-0.96,0.4834699610141037
-0.74,-0.96,0.39086235363905225
-0.72,-0.96,0.29209061345726056
-0.7,-0.96,0.18871242981477304
-0.6799999999999999,-0.96,0.08235813842276528
-0.6599999999999999,-0.96,-0.025294990010536714
-0.64,-0.96,-0.13254920134087797
-0.62,-0.96,-0.23771303258501889
-0.6,-0.96,-0.33912798730241145
-0.5800000000000001,-0.96,-0.43519469107480524
-0.56,-0.96,-0.5243981145962422
-0.54,-0.96,-0.605331466590247
-0.52,-0.96,-0.676718379748633
-0.5,-0.96,-0.7374330398064181
-0.48,-0.96,-0.7865179403053104
-0.45999999999999996,-0.96,-0.8231989830425449
-0.43999999999999995,-0.96,-0.8468976860619621
-0.42000000000000004,-0.96,-0.8572403066600269
-0.4,-0.96,-0.8540637355315257
-0.38,-0.96,-0.8374180691007466
-0.36,-0.96,-0.8075658194709429
-0.33999999999999997,-0.96,-0.7649777744516455
-0.31999999999999995,-0.96,-0.7103255729536733
-0.29999999999999993,-0.96,-0.6444711128422927
-0.28,-0.96,-0.5684529582930071
-0.26,-0.96,-0.4834699610141035
-0.24,-0.96,-0.390862353639052
-0.21999999999999997,-0.96,-0.29209061345726045
-0.19999999999999996,-0.96,-0.18871242981477293
-0.17999999999999994,-0.96,-0.0823581384227652
-0.16000000000000003,-0.96,0.025294990010536755
-0.14,-0.96,0.132549201340878
-0.12,-0.96,0.23771303258501877
-0.09999999999999998,-0.96,0.33912798730241134
-0.07999999999999996,-0.96,0.435194691074805
-0.05999999999999994,-0.96,0.524398114596242
-0.040000000000000036,-0.96,0.605331466590247
-0.020000000000000018,-0.96,0.676718379748633
0.0,-0.96,0.737433039806418
0.020000000000000018,-0.96,0.7865179403053104
0.040000000000000036,-0.96,0.8231989830425449
0.06000000000000005,-0.96,0.846897686061962
0.08000000000000007,-0.96,0.857240306660027
0.10000000000000009,-0.96,0.8540637355315256
0.1200000000000001,-0.96,0.8374180691007467
0.14000000000000012,-0.96,0.8075658194709427
0.15999999999999992,-0.96,0.7649777744516454
0.17999999999999994,-0.96,0.7103255729536732
0.19999999999999996,-0.96,0.6444711128422925
0.21999999999999997,-0.96,0.568452958293007
0.24,-0.96,0.4834699610141035
0.26,-0.96,0.3908623536390518
0.28,-0.96,0.29209061345726034
0.30000000000000004,-0.96,0.1887124298147728
0.32000000000000006,-0.96,0.08235813842276518
0.3400000000000001,-0.96,-0.025294990010536762
0.3600000000000001,-0.96,-0.132549201340878
0.3800000000000001,-0.96,-0.23771303258501877
0.40000000000000013,-0.96,-0.33912798730241145
0.41999999999999993,-0.96,-0.43519469107480513
0.43999999999999995,-0.96,-0.5243981145962421
0.45999999999999996,-0.96,-0.6053314665902471
0.48,-0.96,-0.6767183797486331
0.5,-0.96,-0.7374330398064178
0.52,-0.96,-0.7865179403053104
0.54,-0.96,-0.8231989830425447
0.56,-0.96,-0.846897686061962
0.5800000000000001,-0.96,-0.8572403066600269
0.6000000000000001,-0.96,-0.8540637355315256
0.6200000000000001,-0.96,-0.8374180691007466
0.6400000000000001,-0.96,-0.8075658194709429
0.6600000000000001,-0.96,-0.7649777744516453
0.6799999999999999,-0.96,-0.710325572953673
0.7,-0.96,-0.6444711128422925
0.72,-0.96,-0.568452958293007
0.74,-0.96,-0.4834699610141036
0.76,-0.96,-0.3908623536390521
0.78,-0.96,-0.29209061345726045
0.8,-0.96,-0.18871242981477301
0.8200000000000001,-0.96,-0.08235813842276533
0.8400000000000001,-0.96,0.02529499001053663
0.8600000000000001,-0.96,0.1325492013408779
0.8800000000000001,-0.96,0.23771303258501864
0.9000000000000001,-0.96,0.33912798730241134
0.9199999999999999,-0.96,0.435194691074805
0.94,-0.96,0.524398114596242
0.96,-0.96,0.605331466590247
0.98,-0.96,0.676718379748633
1.0,-0.96,0.737433039806418

-1.0,-0.94,0.7625148820617617
-0.98,-0.94,0.8111020661176437
-0.96,-0.94,0.8468976860619618
-0.94,-0.94,0.8693372235849284
-0.92,-0.94,0.8780667937750747
-0.9,-0.94,0.8729487260957103
-0.88,-0.94,0.8540637355315248
-0.86,-0.94,0.8217096496650618
-0.84,-0.94,0.7763967117578291
-0.8200000000000001,-0.94,0.7188395339092613
-0.8,-0.94,0.6499458271970209
-0.78,-0.94,0.5708020865310661
-0.76,-0.94,0.48265645597987794
-0.74,-0.94,0.38689904479289594
-0.72,-0.94,0.28504000454724354
-0.7,-0.94,0.1786857131552359
-0.6799999999999999,-0.94,0.06951344132509898
-0.6599999999999999,-0.94,-0.04075509900005181
-0.64,-0.94,-0.1503809070680559
-0.62,-0.94,-0.2576351183983972
-0.6,-0.94,-0.3608262700078362
-0.5800000000000001,-0.94,-0.4583269757920857
-0.56,-0.94,-0.5485995913768299
-0.54,-0.94,-0.6302204636880506
-0.52,-0.94,-0.7019023828114542
-0.5,-0.94,-0.7625148820617617
-0.48,-0.94,-0.8111020661176437
-0.45999999999999996,-0.94,-0.846897686061962
-0.43999999999999995,-0.94,-0.8693372235849282
-0.42000000000000004,-0.94,-0.8780667937750747
-0.4,-0.94,-0.8729487260957102
-0.38,-0.94,-0.8540637355315249
-0.36,-0.94,-0.821709649665062
-0.33999999999999997,-0.94,-0.7763967117578292
-0.31999999999999995,-0.94,-0.7188395339092613
-0.29999999999999993,-0.94,-0.6499458271970209
-0.28,-0.94,-0.5708020865310659
-0.26,-0.94,-0.48265645597987783
-0.24,-0.94,-0.3868990447928959
-0.21999999999999997,-0.94,-0.28504000454724343
-0.19999999999999996,-0.94,-0.1786857131552358
-0.17999999999999994,-0.94,-0.06951344132509892
-0.16000000000000003,-0.94,0.04075509900005186
-0.14,-0.94,0.15038090706805587
-0.12,-0.94,0.2576351183983971
-0.09999999999999998,-0.94,0.360826270007836
-0.07999999999999996,-0.94,0.4583269757920856
-0.05999999999999994,-0.94,0.54859959137683
-0.040000000000000036,-0.94,0.6302204636880506
-0.020000000000000018,-0.94,0.7019023828114542
0.0,-0.94,0.7625148820617614
0.020000000000000018,-0.94,0.8111020661176437
0.040000000000000036,-0.94,0.8468976860619621
0.06000000000000005,-0.94,0.8693372235849283
0.08000000000000007,-0.94,0.8780667937750746
0.10000000000000009,-0.94,0.8729487260957102
0.1200000000000001,-0.94,0.8540637355315247
0.14000000000000012,-0.94,0.8217096496650619
0.15999999999999992,-0.94,0.776396711757829
0.17999999999999994,-0.94,0.718839533909261
0.19999999999999996,-0.94,0.6499458271970208
0.21999999999999997,-0.94,0.5708020865310659
0.24,-0.94,0.4826564559798776
0.26,-0.94,0.38689904479289583
0.28,-0.94,0.28504000454724326
0.30000000000000004,-0.94,0.17868571315523574
0.32000000000000006,-0.94,0.06951344132509885
0.3400000000000001,-0.94,-0.0407550990000519
0.3600000000000001,-0.94,-0.15038090706805582
0.3800000000000001,-0.94,-0.2576351183983972
0.40000000000000013,-0.94,-0.36082627000783607
0.41999999999999993,-0.94,-0.45832697579208564
0.43999999999999995,-0.94,-0.54859959137683
0.45999999999999996,-0.94,-0.6302204636880507
0.48,-0.94,-0.7019023828114541
0.5,-0.94,-0.7625148820617614
0.52,-0.94,-0.8111020661176435
0.54,-0.94,-0.8468976860619621
0.56,-0.94,-0.8693372235849283
0.5800000000000001,-0.94,-0.8780667937750747
0.6000000000000001,-0.94,-0.8729487260957102
0.6200000000000001,-0.94,-0.8540637355315249
0.6400000000000001,-0.94,-0.8217096496650619
0.6600000000000001,-0.94,-0.776396711757829
0.6799999999999999,-0.94,-0.7188395339092609
0.7,-0.94,-0.6499458271970207
0.72,-0.94,-0.570802086531066
0.74,-0.94,-0.4826564559798779
0.76,-0.94,-0.38689904479289583
0.78,-0.94,-0.2850400045472435
0.8,-0.94,-0.17868571315523588
0.8200000000000001,-0.94,-0.06951344132509904
0.8400000000000001,-0.94,0.04075509900005176
0.8600000000000001,-0.94,0.15038090706805568
0.8800000000000001,-0.94,0.2576351183983971
0.9000000000000001,-0.94,0.36082627000783596
0.9199999999999999,-0.94,0.45832697579208553
0.94,-0.94,0.5485995913768299
0.96,-0.94,0.6302204636880506
0.98,-0.94,0.7019023828114542
1.0,-0.94,0.7625148820617617

-1.0,-0.92,0.7755714091226799
-0.98,-0.92,0.8228946278184128
-0.96,-0.92,0.8572403066600269
-0.94,-0.92,0.8780667937750748
-0.92,-0.92,0.8850456430206113
-0.9,-0.92,0.8780667937750735
-0.88,-0.92,0.857240306660025
-0.86,-0.92,0.8228946278184109
-0.84,-0.92,0.7755714091226776
-0.8200000000000001,-0.92,0.7160169660011767
-0.8,-0.92,0.6451705075980346
-0.78,-0.92,0.5641493248838917
-0.76,-0.92,0.47423117030985845
-0.74,-0.92,0.37683410688806945
-0.72,-0.92,0.27349414449087145
-0.7,-0.92,0.16584101605756962
-0.6799999999999999,-0.92,0.05557247573241887
-0.6599999999999999,-0.92,-0.05557247573242013
-0.64,-0.92,-0.16584101605757104
-0.62,-0.92,-0.27349414449087317
-0.6,-0.92,-0.3768341068880714
-0.5800000000000001,-0.92,-0.47423117030986073
-0.56,-0.92,-0.5641493248838942
-0.54,-0.92,-0.6451705075980371
-0.52,-0.92,-0.7160169660011791
-0.5,-0.92,-0.7755714091226797
-0.48,-0.92,-0.822894627818413
-0.45999999999999996,-0.92,-0.8572403066600269
-0.43999999999999995,-0.92,-0.8780667937750747
-0.42000000000000004,-0.92,-0.8850456430206114
-0.4,-0.92,-0.8780667937750734
-0.38,-0.92,-0.857240306660025
-0.36,-0.92,-0.8228946278184109
-0.33999999999999997,-0.92,-0.7755714091226776
-0.31999999999999995,-0.92,-0.7160169660011767
-0.29999999999999993,-0.92,-0.6451705075980345
-0.28,-0.92,-0.5641493248838916
-0.26,-0.92,-0.4742311703098585
-0.24,-0.92,-0.3768341068880693
-0.21999999999999997,-0.92,-0.27349414449087134
-0.19999999999999996,-0.92,-0.16584101605756948
-0.17999999999999994,-0.92,-0.05557247573241881
-0.16000000000000003,-0.92,0.055572475732420155
-0.14,-0.92,0.16584101605757098
-0.12,-0.92,0.273494144490873
-0.09999999999999998,-0.92,0.3768341068880713
-0.07999999999999996,-0.92,0.4742311703098608
-0.05999999999999994,-0.92,0.5641493248838941
-0.040000000000000036,-0.92,0.6451705075980372
-0.020000000000000018,-0.92,0.716016966001179
0.0,-0.92,0.7755714091226799
0.020000000000000018,-0.92,0.822894627818413
0.040000000000000036,-0.92,0.8572403066600269
0.06000000000000005,-0.92,0.8780667937750746
0.08000000000000007,-0.92,0.8850456430206113
0.10000000000000009,-0.92,0.8780667937750732
0.1200000000000001,-0.92,0.8572403066600252
0.14000000000000012,-0.92,0.8228946278184108
0.15999999999999992,-0.92,0.7755714091226774
0.17999999999999994,-0.92,0.7160169660011767
0.19999999999999996,-0.92,0.6451705075980345
0.21999999999999997,-0.92,0.5641493248838915
0.24,-0.92,0.4742311703098584
0.26,-0.92,0.3768341068880692
0.28,-0.92,0.2734941444908713
0.30000000000000004,-0.92,0.1658410160575694
0.32000000000000006,-0.92,0.05557247573241872
0.3400000000000001,-0.92,-0.055572475732420155
0.3600000000000001,-0.92,-0.165841016057571
0.3800000000000001,-0.92,-0.2734941444908731
0.40000000000000013,-0.92,-0.37683410688807134
0.41999999999999993,-0.92,-0.4742311703098608
0.43999999999999995,-0.92,-0.5641493248838944
0.45999999999999996,-0.92,-0.645170507598037
0.48,-0.92,-0.716016966001179
0.5,-0.92,-0.7755714091226796
0.52,-0.92,-0.822894627818413
0.54,-0.92,-0.8572403066600269
0.56,-0.92,-0.8780667937750746
0.5800000000000001,-0.92,-0.8850456430206112
0.6000000000000001,-0.92,-0.8780667937750735
0.6200000000000001,-0.92,-0.857240306660025
0.6400000000000001,-0.92,-0.8228946278184109
0.6600000000000001,-0.92,-0.7755714091226773
0.6799999999999999,-0.92,-0.7160169660011765
0.7,-0.92,-0.6451705075980344
0.72,-0.92,-0.5641493248838917
0.74,-0.92,-0.4742311703098584
0.76,-0.92,-0.3768341068880693
0.78,-0.92,-0.27349414449087134
0.8,-0.92,-0.16584101605756957
0.8200000000000001,-0.92,-0.055572475732418865
0.8400000000000001,-0.92,0.05557247573241998
0.8600000000000001,-0.92,0.1658410160575709
0.8800000000000001,-0.92,0.27349414449087295
0.9000000000000001,-0.92,0.3768341068880712
0.9199999999999999,-0.92,0.47423117030986073
0.94,-0.92,0.5641493248838942
0.96,-0.92,0.6451705075980371
0.98,-0.92,0.7160169660011793
1.0,-0.92,0.7755714091226799

-1.0,-0.9,0.7763967117578303
-0.98,-0.9,0.821709649665063
-0.96,-0.9,0.8540637355315259
-0.94,-0.9,0.8729487260957103
-0.92,-0.9,0.8780667937750735
-0.9,-0.9,0.869337223584926
-0.88,-0.9,0.8468976860619596
-0.86,-0.9,0.8111020661176409
-0.84,-0.9,0.7625148820617585
-0.8200000000000001,-0.9,0.7019023828114511
-0.8,-0.9,0.6302204636880475
-0.78,-0.9,0.5485995913768271
-0.76,-0.9,0.4583269757920833
-0.74,-0.9,0.36082627000783407
-0.72,-0.9,0.2576351183983956
-0.7,-0.9,0.15038090706805451
-0.6799999999999999,-0.9,0.04075509900005056
-0.6599999999999999,-0.9,-0.06951344132510029
-0.64,-0.9,-0.17868571315523735
-0.62,-0.9,-0.28504000454724515
-0.6,-0.9,-0.3868990447928978
-0.5800000000000001,-0.9,-0.4826564559798797
-0.56,-0.9,-0.5708020865310678
-0.54,-0.9,-0.6499458271970224
-0.52,-0.9,-0.7188395339092626
-0.5,-0.9,-0.7763967117578304
-0.48,-0.9,-0.821709649665063
-0.45999999999999996,-0.9,-0.8540637355315258
-0.43999999999999995,-0.9,-0.8729487260957103
-0.42000000000000004,-0.9,-0.8780667937750734
-0.4,-0.9,-0.8693372235849262
-0.38,-0.9,-0.8468976860619596
-0.36,-0.9,-0.8111020661176411
-0.33999999999999997,-0.9,-0.7625148820617585
-0.31999999999999995,-0.9,-0.7019023828114511
-0.29999999999999993,-0.9,-0.6302204636880475
-0.28,-0.9,-0.5485995913768272
-0.26,-0.9,-0.45832697579208326
-0.24,-0.9,-0.360826270007834
-0.21999999999999997,-0.9,-0.2576351183983954
-0.19999999999999996,-0.9,-0.15038090706805443
-0.17999999999999994,-0.9,-0.0407550990000505
-0.16000000000000003,-0.9,0.06951344132510028
-0.14,-0.9,0.17868571315523726
-0.12,-0.9,0.2850400045472451
-0.09999999999999998,-0.9,0.3868990447928977
-0.07999999999999996,-0.9,0.48265645597987966
-0.05999999999999994,-0.9,0.570802086531068
-0.040000000000000036,-0.9,0.6499458271970225
-0.020000000000000018,-0.9,0.7188395339092626
0.0,-0.9,0.7763967117578304
0.020000000000000018,-0.9,0.821709649665063
0.040000000000000036,-0.9,0.8540637355315256
0.06000000000000005,-0.9,0.8729487260957102
0.08000000000000007,-0.9,0.8780667937750732
0.10000000000000009,-0.9,0.8693372235849262
0.1200000000000001,-0.9,0.8468976860619594
0.14000000000000012,-0.9,0.8111020661176409
0.15999999999999992,-0.9,0.7625148820617585
0.17999999999999994,-0.9,0.701902382811451
0.19999999999999996,-0.9,0.6302204636880473
0.21999999999999997,-0.9,0.548599591376827
0.24,-0.9,0.45832697579208315
0.26,-0.9,0.3608262700078339
0.28,-0.9,0.25763511839839537
0.30000000000000004,-0.9,0.1503809070680543
0.32000000000000006,-0.9,0.04075509900005044
0.3400000000000001,-0.9,-0.06951344132510033
0.3600000000000001,-0.9,-0.17868571315523735
0.3800000000000001,-0.9,-0.28504000454724515
0.40000000000000013,-0.9,-0.3868990447928977
0.41999999999999993,-0.9,-0.4826564559798798
0.43999999999999995,-0.9,-0.5708020865310677
0.45999999999999996,-0.9,-0.6499458271970225
0.48,-0.9,-0.7188395339092626
0.5,-0.9,-0.7763967117578304
0.52,-0.9,-0.821709649665063
0.54,-0.9,-0.8540637355315257
0.56,-0.9,-0.8729487260957101
0.5800000000000001,-0.9,-0.8780667937750734
0.6000000000000001,-0.9,-0.8693372235849262
0.6200000000000001,-0.9,-0.8468976860619595
0.6400000000000001,-0.9,-0.8111020661176408
0.6600000000000001,-0.9,-0.7625148820617584
0.6799999999999999,-0.9,-0.7019023828114509
0.7,-0.9,-0.6302204636880476
0.72,-0.9,-0.5485995913768269
0.74,-0.9,-0.4583269757920831
0.76,-0.9,-0.36082627000783396
0.78,-0.9,-0.2576351183983955
0.8,-0.9,-0.15038090706805443
0.8200000000000001,-0.9,-0.04075509900005065
0.8400000000000001,-0.9,0.06951344132510015
0.8600000000000001,-0.9,0.17868571315523718
0.8800000000000001,-0.9,0.28504000454724493
0.9000000000000001,-0.9,0.3868990447928976
0.9199999999999999,-0.9,0.4826564559798796
0.94,-0.9,0.5708020865310679
0.96,-0.9,0.6499458271970225
0.98,-0.9,0.7188395339092626
1.0,-0.9,0.7763967117578303

-1.0,-0.88,0.7649777744516459
-0.98,-0.88,0.8075658194709435
-0.96,-0.88,0.8374180691007468
-0.94,-0.88,0.8540637355315249
-0.92,-0.88,0.857240306660025
-0.9,-0.88,0.8468976860619596
-0.88,-0.88,0.823198983042542
-0.86,-0.88,0.7865179403053073
-0.84,-0.88,0.7374330398064146
-0.8200000000000001,-0.88,0.6767183797486295
-0.8,-0.88,0.6053314665902435
-0.78,-0.88,0.5243981145962392
-0.76,-0.88,0.4351946910748028
-0.74,-0.88,0.33912798730240956
-0.72,-0.88,0.23771303258501733
-0.7,-0.88,0.1325492013408766
-0.6799999999999999,-0.88,0.025294990010535437
-0.6599999999999999,-0.88,-0.08235813842276657
-0.64,-0.88,-0.1887124298147744
-0.62,-0.88,-0.29209061345726195
-0.6,-0.88,-0.3908623536390534
-0.5800000000000001,-0.88,-0.4834699610141047
-0.56,-0.88,-0.568452958293008
-0.54,-0.88,-0.6444711128422934
-0.52,-0.88,-0.7103255729536739
-0.5,-0.88,-0.764977774451646
-0.48,-0.88,-0.8075658194709434
-0.45999999999999996,-0.88,-0.8374180691007468
-0.43999999999999995,-0.88,-0.8540637355315249
-0.42000000000000004,-0.88,-0.857240306660025
-0.4,-0.88,-0.8468976860619597
-0.38,-0.88,-0.8231989830425421
-0.36,-0.88,-0.7865179403053072
-0.33999999999999997,-0.88,-0.7374330398064146
-0.31999999999999995,-0.88,-0.6767183797486297
-0.29999999999999993,-0.88,-0.6053314665902437
-0.28,-0.88,-0.5243981145962393
-0.26,-0.88,-0.4351946910748028
-0.24,-0.88,-0.3391279873024095
-0.21999999999999997,-0.88,-0.23771303258501722
-0.19999999999999996,-0.88,-0.13254920134087653
-0.17999999999999994,-0.88,-0.025294990010535395
-0.16000000000000003,-0.88,0.08235813842276656
-0.14,-0.88,0.18871242981477437
-0.12,-0.88,0.2920906134572619
-0.09999999999999998,-0.88,0.39086235363905336
-0.07999999999999996,-0.88,0.4834699610141048
-0.05999999999999994,-0.88,0.568452958293008
-0.040000000000000036,-0.88,0.6444711128422934
-0.020000000000000018,-0.88,0.710325572953674
0.0,-0.88,0.7649777744516459
0.020000000000000018,-0.88,0.8075658194709433
0.040000000000000036,-0.88,0.8374180691007467
0.06000000000000005,-0.88,0.8540637355315247
0.08000000000000007,-0.88,0.857240306660025
0.10000000000000009,-0.88,0.8468976860619595
0.1200000000000001,-0.88,0.8231989830425419
0.14000000000000012,-0.88,0.7865179403053072
0.15999999999999992,-0.88,0.7374330398064144
0.17999999999999994,-0.88,0.6767183797486295
0.19999999999999996,-0.88,0.6053314665902435
0.21999999999999997,-0.88,0.524398114596239
0.24,-0.88,0.43519469107480263
0.26,-0.88,0.3391279873024094
0.28,-0.88,0.23771303258501705
0.30000000000000004,-0.88,0.13254920134087642
0.32000000000000006,-0.88,0.025294990010535333
0.3400000000000001,-0.88,-0.0823581384227666
0.3600000000000001,-0.88,-0.18871242981477437
0.3800000000000001,-0.88,-0.2920906134572619
0.40000000000000013,-0.88,-0.3908623536390534
0.41999999999999993,-0.88,-0.48346996101410467
0.43999999999999995,-0.88,-0.568452958293008
0.45999999999999996,-0.88,-0.6444711128422935
0.48,-0.88,-0.710325572953674
0.5,-0.88,-0.7649777744516459
0.52,-0.88,-0.8075658194709432
0.54,-0.88,-0.8374180691007466
0.56,-0.88,-0.8540637355315248
0.5800000000000001,-0.88,-0.8572403066600253
0.6000000000000001,-0.88,-0.8468976860619595
0.6200000000000001,-0.88,-0.823198983042542
0.6400000000000001,-0.88,-0.7865179403053072
0.6600000000000001,-0.88,-0.7374330398064144
0.6799999999999999,-0.88,-0.6767183797486297
0.7,-0.88,-0.6053314665902435
0.72,-0.88,-0.524398114596239
0.74,-0.88,-0.43519469107480263
0.76,-0.88,-0.3391279873024094
0.78,-0.88,-0.23771303258501716
0.8,-0.88,-0.13254920134087667
0.8200000000000001,-0.88,-0.02529499001053552
0.8400000000000001,-0.88,0.08235813842276644
0.8600000000000001,-0.88,0.18871242981477418
0.8800000000000001,-0.88,0.2920906134572618
0.9000000000000001,-0.88,0.39086235363905325
0.9199999999999999,-0.88,0.4834699610141047
0.94,-0.88,0.5684529582930081
0.96,-0.88,0.6444711128422934
0.98,-0.88,0.7103255729536739
1.0,-0.88,0.7649777744516459

-1.0,-0.86,0.7414946806667873
-0.98,-0.86,0.7806861938873301
-0.96,-0.86,0.8075658194709427
-0.94,-0.86,0.8217096496650619
-0.92,-0.86,0.822894627818411
-0.9,-0.86,0.8111020661176409
-0.88,-0.86,0.7865179403053074
-0.86,-0.86,0.7495299567313157
-0.84,-0.86,0.7007214379921782
-0.8200000000000001,-0.86,0.6408621235852069
-0.8,-0.86,0.5708960306568212
-0.78,-0.86,0.4919265662882194
-0.76,-0.86,0.40519912610656567
-0.74,-0.86,0.31208145365198614
-0.72,-0.86,0.2140420702448907
-0.7,-0.86,0.11262711552749834
-0.6799999999999999,-0.86,0.009435963918059608
-0.6599999999999999,-0.86,-0.09390399847913862
-0.64,-0.86,-0.19576303872479114
-0.62,-0.86,-0.2945347789065827
-0.6,-0.86,-0.38866152967846895
-0.5800000000000001,-0.86,-0.47665885595218194
-0.56,-0.86,-0.5571389873253304
-0.54,-0.86,-0.6288327040496599
-0.52,-0.86,-0.690609353384677
-0.5,-0.86,-0.7414946806667871
-0.48,-0.86,-0.7806861938873302
-0.45999999999999996,-0.86,-0.807565819470943
-0.43999999999999995,-0.86,-0.8217096496650618
-0.42000000000000004,-0.86,-0.8228946278184112
-0.4,-0.86,-0.8111020661176409
-0.38,-0.86,-0.7865179403053072
-0.36,-0.86,-0.7495299567313157
-0.33999999999999997,-0.86,-0.7007214379921782
-0.31999999999999995,-0.86,-0.6408621235852071
-0.29999999999999993,-0.86,-0.5708960306568213
-0.28,-0.86,-0.49192656628821946
-0.26,-0.86,-0.40519912610656555
-0.24,-0.86,-0.31208145365198603
-0.21999999999999997,-0.86,-0.21404207024489064
-0.19999999999999996,-0.86,-0.11262711552749823
-0.17999999999999994,-0.86,-0.009435963918059545
-0.16000000000000003,-0.86,0.09390399847913862
-0.14,-0.86,0.19576303872479112
-0.12,-0.86,0.29453477890658264
-0.09999999999999998,-0.86,0.38866152967846895
-0.07999999999999996,-0.86,0.4766588559521819
-0.05999999999999994,-0.86,0.5571389873253304
-0.040000000000000036,-0.86,0.6288327040496596
-0.020000000000000018,-0.86,0.6906093533846769
0.0,-0.86,0.741494680666787
0.020000000000000018,-0.86,0.7806861938873301
0.040000000000000036,-0.86,0.8075658194709427
0.06000000000000005,-0.86,0.8217096496650618
0.08000000000000007,-0.86,0.822894627818411
0.10000000000000009,-0.86,0.8111020661176409
0.1200000000000001,-0.86,0.7865179403053072
0.14000000000000012,-0.86,0.7495299567313155
0.15999999999999992,-0.86,0.7007214379921782
0.17999999999999994,-0.86,0.6408621235852069
0.19999999999999996,-0.86,0.5708960306568209
0.21999999999999997,-0.86,0.49192656628821924
0.24,-0.86,0.4051991261065655
0.26,-0.86,0.31208145365198586
0.28,-0.86,0.2140420702448905
0.30000000000000004,-0.86,0.11262711552749818
0.32000000000000006,-0.86,0.009435963918059507
0.3400000000000001,-0.86,-0.09390399847913862
0.3600000000000001,-0.86,-0.19576303872479114
0.3800000000000001,-0.86,-0.29453477890658264
0.40000000000000013,-0.86,-0.38866152967846895
0.41999999999999993,-0.86,-0.4766588559521819
0.43999999999999995,-0.86,-0.5571389873253305