TITLE = "Solution" 
VARIABLES = "x", "y", "sol" 
ZONE STRANDID=1, SOLUTIONTIME= 0.04999999999999999, I= 101, J =101, DATAPACKING=POINT 
-1.0,-1.0,0.07608670396755728
-0.98,-1.0,0.03865222442516304
-0.96,-1.0,0.0006081762138642772
-0.94,-1.0,-0.037445463299633976
-0.92,-1.0,-0.07490856548806143
-0.9,-1.0,-0.11119031485053413
-0.88,-1.0,-0.14571852652593933
-0.86,-1.0,-0.1779486699900022
-0.84,-1.0,-0.20737245662693984
-0.8200000000000001,-1.0,-0.23352585574456977
-0.8,-1.0,-0.2559964126155234
-0.78,-1.0,-0.27442975313468587
-0.76,-1.0,-0.28853517251052613
-0.74,-1.0,-0.29809021985331813
-0.72,-1.0,-0.30294420635855723
-0.7,-1.0,-0.30302058175942503
-0.6799999999999999,-1.0,-0.2983181415702253
-0.6599999999999999,-1.0,-0.28891104608184337
-0.64,-1.0,-0.27494765080965744
-0.62,-1.0,-0.25664816683843794
-0.6,-1.0,-0.23430118796199284
-0.5800000000000001,-1.0,-0.20825913938664178
-0.56,-1.0,-0.17893271977518377
-0.54,-1.0,-0.1467844242836454
-0.52,-1.0,-0.11232125073638918
-0.5,-1.0,-0.07608670396755719
-0.48,-1.0,-0.03865222442516297
-0.45999999999999996,-1.0,-0.0006081762138642668
-0.43999999999999995,-1.0,0.03744546329963395
-0.42000000000000004,-1.0,0.07490856548806141
-0.4,-1.0,0.11119031485053409
-0.38,-1.0,0.1457185265259393
-0.36,-1.0,0.17794866999000214
-0.33999999999999997,-1.0,0.20737245662693984
-0.31999999999999995,-1.0,0.2335258557445697
-0.29999999999999993,-1.0,0.2559964126155233
-0.28,-1.0,0.27442975313468587
-0.26,-1.0,0.28853517251052613
-0.24,-1.0,0.2980902198533181
-0.21999999999999997,-1.0,0.30294420635855723
-0.19999999999999996,-1.0,0.30302058175942503
-0.17999999999999994,-1.0,0.2983181415702253
-0.16000000000000003,-1.0,0.28891104608184337
-0.14,-1.0,0.2749476508096575
-0.12,-1.0,0.25664816683843794
-0.09999999999999998,-1.0,0.23430118796199284
-0.07999999999999996,-1.0,0.20825913938664176
-0.05999999999999994,-1.0,0.17893271977518369
-0.040000000000000036,-1.0,0.14678442428364533
-0.020000000000000018,-1.0,0.11232125073638906
0.0,-1.0,0.07608670396755715
0.020000000000000018,-1.0,0.03865222442516298
0.040000000000000036,-1.0,0.0006081762138643032
0.06000000000000005,-1.0,-0.0374454632996339
0.08000000000000007,-1.0,-0.07490856548806135
0.10000000000000009,-1.0,-0.11119031485053407
0.1200000000000001,-1.0,-0.14571852652593936
0.14000000000000012,-1.0,-0.17794866999000222
0.15999999999999992,-1.0,-0.2073724566269399
0.17999999999999994,-1.0,-0.23352585574456972
0.19999999999999996,-1.0,-0.25599641261552336
0.21999999999999997,-1.0,-0.2744297531346858
0.24,-1.0,-0.2885351725105261
0.26,-1.0,-0.2980902198533181
0.28,-1.0,-0.30294420635855723
0.30000000000000004,-1.0,-0.30302058175942503
0.32000000000000006,-1.0,-0.2983181415702253
0.3400000000000001,-1.0,-0.28891104608184337
0.3600000000000001,-1.0,-0.27494765080965744
0.3800000000000001,-1.0,-0.25664816683843794
0.40000000000000013,-1.0,-0.2343011879619927
0.41999999999999993,-1.0,-0.20825913938664165
0.43999999999999995,-1.0,-0.17893271977518366
0.45999999999999996,-1.0,-0.1467844242836454
0.48,-1.0,-0.11232125073638924
0.5,-1.0,-0.07608670396755726
0.52,-1.0,-0.03865222442516304
0.54,-1.0,-0.0006081762138643396
0.56,-1.0,0.03744546329963387
0.5800000000000001,-1.0,0.07490856548806134
0.6000000000000001,-1.0,0.11119031485053404
0.6200000000000001,-1.0,0.1457185265259393
0.6400000000000001,-1.0,0.17794866999000217
0.6600000000000001,-1.0,0.20737245662693984
0.6799999999999999,-1.0,0.23352585574456972
0.7,-1.0,0.2559964126155233
0.72,-1.0,0.27442975313468576
0.74,-1.0,0.2885351725105261
0.76,-1.0,0.2980902198533181
0.78,-1.0,0.30294420635855723
0.8,-1.0,0.30302058175942503
0.8200000000000001,-1.0,0.29831814157022535
0.8400000000000001,-1.0,0.2889110460818434
0.8600000000000001,-1.0,0.2749476508096575
0.8800000000000001,-1.0,0.25664816683843794
0.9000000000000001,-1.0,0.2343011879619928
0.9199999999999999,-1.0,0.2082591393866417
0.94,-1.0,0.1789327197751837
0.96,-1.0,0.14678442428364552
0.98,-1.0,0.11232125073638932
1.0,-1.0,0.07608670396755729

-1.0,-0.98,0.03865222442516304
-0.98,-0.98,0.015706958210905054
-0.96,-0.98,-0.007486016117220941
-0.94,-0.98,-0.030560931499249076
-0.92,-0.98,-0.05315388273531846
-0.9,-0.98,-0.07490856548806138
-0.88,-0.98,-0.09548189541484958
-0.86,-0.98,-0.11454941881282607
-0.84,-0.98,-0.13181042944761837
-0.8200000000000001,-0.98,-0.14699271087028778
-0.8,-0.98,-0.15985682943334353
-0.78,-0.98,-0.17019991030239434
-0.76,-0.98,-0.17785883691347826
-0.74,-0.98,-0.18271282341871742
-0.72,-0.98,-0.18468531955129328
-0.7,-0.98,-0.183745217868883
-0.6799999999999999,-0.98,-0.17990734433660782
-0.6599999999999999,-0.98,-0.17323222451270615
-0.64,-0.98,-0.1638251290243242
-0.62,-0.98,-0.15183441338684026
-0.6,-0.98,-0.1374491783487638
-0.5800000000000001,-0.98,-0.12089628765996813
-0.56,-0.98,-0.10243679029483306
-0.54,-0.98,-0.08236180355397615
-0.52,-0.98,-0.06098792197051643
-0.5,-0.98,-0.03865222442516298
-0.48,-0.98,-0.015706958210905023
-0.45999999999999996,-0.98,0.007486016117220936
-0.43999999999999995,-0.98,0.030560931499249055
-0.42000000000000004,-0.98,0.05315388273531843
-0.4,-0.98,0.07490856548806137
-0.38,-0.98,0.09548189541484955
-0.36,-0.98,0.11454941881282604
-0.33999999999999997,-0.98,0.1318104294476183
-0.31999999999999995,-0.98,0.14699271087028773
-0.29999999999999993,-0.98,0.1598568294333435
-0.28,-0.98,0.17019991030239434
-0.26,-0.98,0.17785883691347823
-0.24,-0.98,0.18271282341871742
-0.21999999999999997,-0.98,0.18468531955129328
-0.19999999999999996,-0.98,0.183745217868883
-0.17999999999999994,-0.98,0.1799073443366078
-0.16000000000000003,-0.98,0.17323222451270615
-0.14,-0.98,0.16382512902432422
-0.12,-0.98,0.15183441338684028
-0.09999999999999998,-0.98,0.1374491783487638
-0.07999999999999996,-0.98,0.12089628765996807
-0.05999999999999994,-0.98,0.10243679029483303
-0.040000000000000036,-0.98,0.08236180355397608
-0.020000000000000018,-0.98,0.06098792197051636
0.0,-0.98,0.03865222442516295
0.020000000000000018,-0.98,0.015706958210905043
0.040000000000000036,-0.98,-0.00748601611722091
0.06000000000000005,-0.98,-0.030560931499249017
0.08000000000000007,-0.98,-0.05315388273531839
0.10000000000000009,-0.98,-0.07490856548806137
0.1200000000000001,-0.98,-0.09548189541484961
0.14000000000000012,-0.98,-0.1145494188128261
0.15999999999999992,-0.98,-0.13181042944761834
0.17999999999999994,-0.98,-0.14699271087028776
0.19999999999999996,-0.98,-0.15985682943334348
0.21999999999999997,-0.98,-0.17019991030239429
0.24,-0.98,-0.1778588369134782
0.26,-0.98,-0.18271282341871742
0.28,-0.98,-0.18468531955129328
0.30000000000000004,-0.98,-0.183745217868883
0.32000000000000006,-0.98,-0.1799073443366078
0.3400000000000001,-0.98,-0.17323222451270615
0.3600000000000001,-0.98,-0.16382512902432422
0.3800000000000001,-0.98,-0.15183441338684023
0.40000000000000013,-0.98,-0.13744917834876375
0.41999999999999993,-0.98,-0.12089628765996802
0.43999999999999995,-0.98,-0.10243679029483303
0.45999999999999996,-0.98,-0.08236180355397617
0.48,-0.98,-0.06098792197051647
0.5,-0.98,-0.038652224425163015
0.52,-0.98,-0.01570695821090507
0.54,-0.98,0.007486016117220888
0.56,-0.98,0.03056093149924901
0.5800000000000001,-0.98,0.05315388273531839
0.6000000000000001,-0.98,0.07490856548806135
0.6200000000000001,-0.98,0.09548189541484958
0.6400000000000001,-0.98,0.11454941881282607
0.6600000000000001,-0.98,0.13181042944761834
0.6799999999999999,-0.98,0.14699271087028773
0.7,-0.98,0.1598568294333435
0.72,-0.98,0.17019991030239429
0.74,-0.98,0.1778588369134782
0.76,-0.98,0.18271282341871742
0.78,-0.98,0.18468531955129328
0.8,-0.98,0.183745217868883
0.8200000000000001,-0.98,0.17990734433660785
0.8400000000000001,-0.98,0.17323222451270617
0.8600000000000001,-0.98,0.16382512902432422
0.8800000000000001,-0.98,0.15183441338684028
0.9000000000000001,-0.98,0.13744917834876375
0.9199999999999999,-0.98,0.12089628765996804
0.94,-0.98,0.10243679029483309
0.96,-0.98,0.08236180355397624
0.98,-0.98,0.0609879219705165
1.0,-0.98,0.03865222442516305

-1.0,-0.96,0.0006081762138642755
-0.98,-0.96,-0.007486016117220941
-0.96,-0.96,-0.015462149502208302
-0.94,-0.96,-0.023194435552905426
-0.92,-0.96,-0.030560931499249017
-0.9,-0.96,-0.03744546329963388
-0.88,-0.96,-0.043739457774948004
-0.86,-0.96,-0.04934365487246565
-0.84,-0.96,-0.05416967305617387
-0.8200000000000001,-0.96,-0.05814140313639206
-0.8,-0.96,-0.06119620855715863
-0.78,-0.96,-0.06328591321213578
-0.76,-0.96,-0.0643775612105855
-0.74,-0.96,-0.0644539366114533
-0.72,-0.96,-0.06351383492904307
-0.7,-0.96,-0.061572082128475925
-0.6799999999999999,-0.96,-0.058659300811363724
-0.6599999999999999,-0.96,-0.05482142727908852
-0.64,-0.96,-0.05011898708988881
-0.62,-0.96,-0.044626140534649916
-0.6,-0.96,-0.038429513084815445
-0.5800000000000001,-0.96,-0.03162682925695503
-0.56,-0.96,-0.024325371438760422
-0.54,-0.96,-0.016640287981704027
-0.52,-0.96,-0.008692777242749953
-0.5,-0.96,-0.0006081762138642564
-0.48,-0.96,0.007486016117220936
-0.45999999999999996,-0.96,0.015462149502208283
-0.43999999999999995,-0.96,0.0231944355529054
-0.42000000000000004,-0.96,0.03056093149924901
-0.4,-0.96,0.03744546329963387
-0.38,-0.96,0.04373945777494798
-0.36,-0.96,0.04934365487246563
-0.33999999999999997,-0.96,0.05416967305617386
-0.31999999999999995,-0.96,0.058141403136392045
-0.29999999999999993,-0.96,0.0611962085571586
-0.28,-0.96,0.06328591321213578
-0.26,-0.96,0.0643775612105855
-0.24,-0.96,0.0644539366114533
-0.21999999999999997,-0.96,0.06351383492904306
-0.19999999999999996,-0.96,0.06157208212847592
-0.17999999999999994,-0.96,0.05865930081136371
-0.16000000000000003,-0.96,0.054821427279088536
-0.14,-0.96,0.050118987089888836
-0.12,-0.96,0.04462614053464994
-0.09999999999999998,-0.96,0.03842951308481543
-0.07999999999999996,-0.96,0.031626829256955036
-0.05999999999999994,-0.96,0.024325371438760405
-0.040000000000000036,-0.96,0.016640287981703993
-0.020000000000000018,-0.96,0.008692777242749921
0.0,-0.96,0.000608176213864272
0.020000000000000018,-0.96,-0.007486016117220908
0.040000000000000036,-0.96,-0.015462149502208264
0.06000000000000005,-0.96,-0.023194435552905387
0.08000000000000007,-0.96,-0.030560931499248996
0.10000000000000009,-0.96,-0.037445463299633885
0.1200000000000001,-0.96,-0.04373945777494803
0.14000000000000012,-0.96,-0.04934365487246567
0.15999999999999992,-0.96,-0.05416967305617388
0.17999999999999994,-0.96,-0.058141403136392024
0.19999999999999996,-0.96,-0.061196208557158564
0.21999999999999997,-0.96,-0.06328591321213577
0.24,-0.96,-0.0643775612105855
0.26,-0.96,-0.06445393661145332
0.28,-0.96,-0.06351383492904307
0.30000000000000004,-0.96,-0.06157208212847592
0.32000000000000006,-0.96,-0.05865930081136371
0.3400000000000001,-0.96,-0.054821427279088536
0.3600000000000001,-0.96,-0.05011898708988882
0.3800000000000001,-0.96,-0.04462614053464993
0.40000000000000013,-0.96,-0.038429513084815396
0.41999999999999993,-0.96,-0.03162682925695501
0.43999999999999995,-0.96,-0.02432537143876042
0.45999999999999996,-0.96,-0.016640287981704062
0.48,-0.96,-0.008692777242749982
0.5,-0.96,-0.0006081762138642807
0.52,-0.96,0.007486016117220919
0.54,-0.96,0.015462149502208268
0.56,-0.96,0.023194435552905387
0.5800000000000001,-0.96,0.030560931499248996
0.6000000000000001,-0.96,0.03744546329963387
0.6200000000000001,-0.96,0.04373945777494801
0.6400000000000001,-0.96,0.049343654872465656
0.6600000000000001,-0.96,0.05416967305617387
0.6799999999999999,-0.96,0.058141403136392045
0.7,-0.96,0.06119620855715859
0.72,-0.96,0.06328591321213575
0.74,-0.96,0.0643775612105855
0.76,-0.96,0.06445393661145332
0.78,-0.96,0.06351383492904307
0.8,-0.96,0.061572082128475925
0.8200000000000001,-0.96,0.05865930081136374
0.8400000000000001,-0.96,0.054821427279088536
0.8600000000000001,-0.96,0.050118987089888836
0.8800000000000001,-0.96,0.04462614053464992
0.9000000000000001,-0.96,0.03842951308481541
0.9199999999999999,-0.96,0.03162682925695502
0.94,-0.96,0.02432537143876045
0.96,-0.96,0.01664028798170409
0.98,-0.96,0.008692777242749992
1.0,-0.96,0.0006081762138642789

-1.0,-0.94,-0.03744546329963397
-0.98,-0.94,-0.030560931499249076
-0.96,-0.94,-0.023194435552905422
-0.94,-0.94,-0.015462149502208245
-0.92,-0.94,-0.007486016117220846
-0.9,-0.94,0.0006081762138643865
-0.88,-0.94,0.008692777242750117
-0.86,-0.94,0.0166402879817042
-0.84,-0.94,0.024325371438760603
-0.8200000000000001,-0.94,0.03162682925695527
-0.8,-0.94,0.038429513084815715
-0.78,-0.94,0.04462614053465026
-0.76,-0.94,0.050118987089889155
-0.74,-0.94,0.05482142727908884
-0.72,-0.94,0.05865930081136405
-0.7,-0.94,0.06157208212847626
-0.6799999999999999,-0.94,0.06351383492904336
-0.6599999999999999,-0.94,0.06445393661145359
-0.64,-0.94,0.06437756121058577
-0.62,-0.94,0.063285913212136
-0.6,-0.94,0.061196208557158835
-0.5800000000000001,-0.94,0.0581414031363922
-0.56,-0.94,0.05416967305617401
-0.54,-0.94,0.04934365487246576
-0.52,-0.94,0.0437394577749481
-0.5,-0.94,0.037445463299633934
-0.48,-0.94,0.030560931499249034
-0.45999999999999996,-0.94,0.023194435552905387
-0.43999999999999995,-0.94,0.015462149502208231
-0.42000000000000004,-0.94,0.007486016117220846
-0.4,-0.94,-0.000608176213864383
-0.38,-0.94,-0.00869277724275011
-0.36,-0.94,-0.016640287981704194
-0.33999999999999997,-0.94,-0.024325371438760603
-0.31999999999999995,-0.94,-0.031626829256955286
-0.29999999999999993,-0.94,-0.03842951308481571
-0.28,-0.94,-0.04462614053465023
-0.26,-0.94,-0.050118987089889155
-0.24,-0.94,-0.05482142727908887
-0.21999999999999997,-0.94,-0.05865930081136406
-0.19999999999999996,-0.94,-0.06157208212847626
-0.17999999999999994,-0.94,-0.06351383492904336
-0.16000000000000003,-0.94,-0.06445393661145357
-0.14,-0.94,-0.06437756121058574
-0.12,-0.94,-0.06328591321213602
-0.09999999999999998,-0.94,-0.06119620855715882
-0.07999999999999996,-0.94,-0.05814140313639223
-0.05999999999999994,-0.94,-0.05416967305617402
-0.040000000000000036,-0.94,-0.049343654872465774
-0.020000000000000018,-0.94,-0.04373945777494807
0.0,-0.94,-0.037445463299633885
0.020000000000000018,-0.94,-0.030560931499249003
0.040000000000000036,-0.94,-0.02319443555290538
0.06000000000000005,-0.94,-0.01546214950220823
0.08000000000000007,-0.94,-0.007486016117220858
0.10000000000000009,-0.94,0.0006081762138643552
0.1200000000000001,-0.94,0.008692777242750069
0.14000000000000012,-0.94,0.0166402879817042
0.15999999999999992,-0.94,0.024325371438760644
0.17999999999999994,-0.94,0.03162682925695533
0.19999999999999996,-0.94,0.038429513084815736
0.21999999999999997,-0.94,0.04462614053465024
0.24,-0.94,0.050118987089889114
0.26,-0.94,0.05482142727908883
0.28,-0.94,0.05865930081136404
0.30000000000000004,-0.94,0.06157208212847626
0.32000000000000006,-0.94,0.06351383492904336
0.3400000000000001,-0.94,0.06445393661145357
0.3600000000000001,-0.94,0.06437756121058574
0.3800000000000001,-0.94,0.06328591321213602
0.40000000000000013,-0.94,0.061196208557158835
0.41999999999999993,-0.94,0.05814140313639222
0.43999999999999995,-0.94,0.05416967305617396
0.45999999999999996,-0.94,0.049343654872465705
0.48,-0.94,0.04373945777494806
0.5,-0.94,0.03744546329963394
0.52,-0.94,0.030560931499249044
0.54,-0.94,0.0231944355529054
0.56,-0.94,0.015462149502208245
0.5800000000000001,-0.94,0.0074860161172208665
0.6000000000000001,-0.94,-0.0006081762138643587
0.6200000000000001,-0.94,-0.008692777242750076
0.6400000000000001,-0.94,-0.016640287981704187
0.6600000000000001,-0.94,-0.024325371438760603
0.6799999999999999,-0.94,-0.03162682925695528
0.7,-0.94,-0.038429513084815715
0.72,-0.94,-0.04462614053465023
0.74,-0.94,-0.05011898708988914
0.76,-0.94,-0.05482142727908883
0.78,-0.94,-0.058659300811364036
0.8,-0.94,-0.06157208212847626
0.8200000000000001,-0.94,-0.06351383492904336
0.8400000000000001,-0.94,-0.0644539366114536
0.8600000000000001,-0.94,-0.06437756121058574
0.8800000000000001,-0.94,-0.06328591321213603
0.9000000000000001,-0.94,-0.06119620855715885
0.9199999999999999,-0.94,-0.05814140313639221
0.94,-0.94,-0.054169673056173956
0.96,-0.94,-0.04934365487246572
0.98,-0.94,-0.043739457774948094
1.0,-0.94,-0.03744546329963397

-1.0,-0.92,-0.07490856548806143
-0.98,-0.92,-0.053153882735318465
-0.96,-0.92,-0.030560931499249024
-0.94,-0.92,-0.007486016117220846
-0.92,-0.92,0.015706958210905154
-0.9,-0.92,0.03865222442516314
-0.88,-0.92,0.060987921970516584
-0.86,-0.92,0.08236180355397632
-0.84,-0.92,0.10243679029483327
-0.8200000000000001,-0.92,0.12089628765996834
-0.8,-0.92,0.13744917834876408
-0.78,-0.92,0.1518344133868406
-0.76,-0.92,0.1638251290243245
-0.74,-0.92,0.17323222451270642
-0.72,-0.92,0.1799073443366081
-0.7,-0.92,0.1837452178688833
-0.6799999999999999,-0.92,0.18468531955129347
-0.6599999999999999,-0.92,0.18271282341871753
-0.64,-0.92,0.1778588369134783
-0.62,-0.92,0.17019991030239442
-0.6,-0.92,0.15985682943334353
-0.5800000000000001,-0.92,0.14699271087028776
-0.56,-0.92,0.13181042944761834
-0.54,-0.92,0.11454941881282607
-0.52,-0.92,0.09548189541484957
-0.5,-0.92,0.07490856548806135
-0.48,-0.92,0.05315388273531838
-0.45999999999999996,-0.92,0.030560931499248975
-0.43999999999999995,-0.92,0.00748601611722083
-0.42000000000000004,-0.92,-0.015706958210905148
-0.4,-0.92,-0.038652224425163126
-0.38,-0.92,-0.060987921970516584
-0.36,-0.92,-0.08236180355397629
-0.33999999999999997,-0.92,-0.10243679029483327
-0.31999999999999995,-0.92,-0.12089628765996834
-0.29999999999999993,-0.92,-0.13744917834876402
-0.28,-0.92,-0.15183441338684056
-0.26,-0.92,-0.16382512902432453
-0.24,-0.92,-0.17323222451270642
-0.21999999999999997,-0.92,-0.1799073443366081
-0.19999999999999996,-0.92,-0.18374521786888323
-0.17999999999999994,-0.92,-0.18468531955129344
-0.16000000000000003,-0.92,-0.18271282341871753
-0.14,-0.92,-0.1778588369134783
-0.12,-0.92,-0.1701999103023944
-0.09999999999999998,-0.92,-0.15985682943334356
-0.07999999999999996,-0.92,-0.14699271087028778
-0.05999999999999994,-0.92,-0.1318104294476183
-0.040000000000000036,-0.92,-0.11454941881282604
-0.020000000000000018,-0.92,-0.09548189541484953
0.0,-0.92,-0.07490856548806128
0.020000000000000018,-0.92,-0.05315388273531834
0.040000000000000036,-0.92,-0.03056093149924897
0.06000000000000005,-0.92,-0.0074860161172208535
0.08000000000000007,-0.92,0.015706958210905113
0.10000000000000009,-0.92,0.03865222442516307
0.1200000000000001,-0.92,0.060987921970516557
0.14000000000000012,-0.92,0.08236180355397635
0.15999999999999992,-0.92,0.10243679029483334
0.17999999999999994,-0.92,0.12089628765996838
0.19999999999999996,-0.92,0.13744917834876408
0.21999999999999997,-0.92,0.15183441338684056
0.24,-0.92,0.16382512902432445
0.26,-0.92,0.17323222451270637
0.28,-0.92,0.17990734433660807
0.30000000000000004,-0.92,0.18374521786888323
0.32000000000000006,-0.92,0.18468531955129344
0.3400000000000001,-0.92,0.18271282341871753
0.3600000000000001,-0.92,0.1778588369134783
0.3800000000000001,-0.92,0.1701999103023944
0.40000000000000013,-0.92,0.15985682943334356
0.41999999999999993,-0.92,0.1469927108702877
0.43999999999999995,-0.92,0.13181042944761823
0.45999999999999996,-0.92,0.11454941881282596
0.48,-0.92,0.09548189541484957
0.5,-0.92,0.07490856548806138
0.52,-0.92,0.05315388273531843
0.54,-0.92,0.030560931499249017
0.56,-0.92,0.007486016117220881
0.5800000000000001,-0.92,-0.015706958210905106
0.6000000000000001,-0.92,-0.03865222442516307
0.6200000000000001,-0.92,-0.06098792197051653
0.6400000000000001,-0.92,-0.08236180355397629
0.6600000000000001,-0.92,-0.10243679029483327
0.6799999999999999,-0.92,-0.12089628765996834
0.7,-0.92,-0.13744917834876402
0.72,-0.92,-0.15183441338684056
0.74,-0.92,-0.1638251290243245
0.76,-0.92,-0.17323222451270637
0.78,-0.92,-0.1799073443366081
0.8,-0.92,-0.1837452178688833
0.8200000000000001,-0.92,-0.18468531955129347
0.8400000000000001,-0.92,-0.18271282341871756
0.8600000000000001,-0.92,-0.17785883691347834
0.8800000000000001,-0.92,-0.17019991030239445
0.9000000000000001,-0.92,-0.15985682943334356
0.9199999999999999,-0.92,-0.14699271087028776
0.94,-0.92,-0.13181042944761825
0.96,-0.92,-0.11454941881282601
0.98,-0.92,-0.09548189541484961
1.0,-0.92,-0.07490856548806143

-1.0,-0.9,-0.11119031485053413
-0.98,-0.9,-0.07490856548806141
-0.96,-0.9,-0.03744546329963388
-0.94,-0.9,0.0006081762138643847
-0.92,-0.9,0.03865222442516314
-0.9,-0.9,0.07608670396755736
-0.88,-0.9,0.11232125073638935
-0.86,-0.9,0.14678442428364555
-0.84,-0.9,0.17893271977518388
-0.8200000000000001,-0.9,0.20825913938664195
-0.8,-0.9,0.23430118796199312
-0.78,-0.9,0.2566481668384382
-0.76,-0.9,0.2749476508096577
-0.74,-0.9,0.2889110460818436
-0.72,-0.9,0.2983181415702255
-0.7,-0.9,0.30302058175942514
-0.6799999999999999,-0.9,0.30294420635855723
-0.6599999999999999,-0.9,0.298090219853318
-0.64,-0.9,0.288535172510526
-0.62,-0.9,0.2744297531346857
-0.6,-0.9,0.2559964126155232
-0.5800000000000001,-0.9,0.23352585574456958
-0.56,-0.9,0.2073724566269397
-0.54,-0.9,0.17794866999000208
-0.52,-0.9,0.14571852652593922
-0.5,-0.9,0.11119031485053402
-0.48,-0.9,0.0749085654880613
-0.45999999999999996,-0.9,0.03744546329963381
-0.43999999999999995,-0.9,-0.0006081762138644038
-0.42000000000000004,-0.9,-0.038652224425163126
-0.4,-0.9,-0.07608670396755733
-0.38,-0.9,-0.1123212507363893
-0.36,-0.9,-0.14678442428364552
-0.33999999999999997,-0.9,-0.1789327197751839
-0.31999999999999995,-0.9,-0.20825913938664195
-0.29999999999999993,-0.9,-0.23430118796199312
-0.28,-0.9,-0.25664816683843816
-0.26,-0.9,-0.2749476508096577
-0.24,-0.9,-0.2889110460818436
-0.21999999999999997,-0.9,-0.29831814157022546
-0.19999999999999996,-0.9,-0.3030205817594252
-0.17999999999999994,-0.9,-0.30294420635855723
-0.16000000000000003,-0.9,-0.29809021985331796
-0.14,-0.9,-0.288535172510526
-0.12,-0.9,-0.27442975313468576
-0.09999999999999998,-0.9,-0.25599641261552325
-0.07999999999999996,-0.9,-0.23352585574456952
-0.05999999999999994,-0.9,-0.20737245662693973
-0.040000000000000036,-0.9,-0.177948669990002
-0.020000000000000018,-0.9,-0.14571852652593914
0.0,-0.9,-0.1111903148505339
0.020000000000000018,-0.9,-0.07490856548806124
0.040000000000000036,-0.9,-0.03744546329963382
0.06000000000000005,-0.9,0.000608176213864357
0.08000000000000007,-0.9,0.03865222442516307
0.10000000000000009,-0.9,0.07608670396755726
0.1200000000000001,-0.9,0.11232125073638932
0.14000000000000012,-0.9,0.1467844242836456
0.15999999999999992,-0.9,0.17893271977518396
0.17999999999999994,-0.9,0.208259139386642
0.19999999999999996,-0.9,0.23430118796199312
0.21999999999999997,-0.9,0.2566481668384381
0.24,-0.9,0.2749476508096576
0.26,-0.9,0.2889110460818436
0.28,-0.9,0.29831814157022546
0.30000000000000004,-0.9,0.3030205817594252
0.32000000000000006,-0.9,0.30294420635855723
0.3400000000000001,-0.9,0.298090219853318
0.3600000000000001,-0.9,0.2885351725105261
0.3800000000000001,-0.9,0.27442975313468576
0.40000000000000013,-0.9,0.2559964126155232
0.41999999999999993,-0.9,0.23352585574456944
0.43999999999999995,-0.9,0.2073724566269396
0.45999999999999996,-0.9,0.177948669990002
0.48,-0.9,0.14571852652593925
0.5,-0.9,0.11119031485053406
0.52,-0.9,0.07490856548806135
0.54,-0.9,0.0374454632996339
0.56,-0.9,-0.0006081762138643275
0.5800000000000001,-0.9,-0.03865222442516304
0.6000000000000001,-0.9,-0.07608670396755725
0.6200000000000001,-0.9,-0.11232125073638927
0.6400000000000001,-0.9,-0.14678442428364552
0.6600000000000001,-0.9,-0.1789327197751839
0.6799999999999999,-0.9,-0.20825913938664195
0.7,-0.9,-0.23430118796199306
0.72,-0.9,-0.2566481668384382
0.74,-0.9,-0.27494765080965766
0.76,-0.9,-0.2889110460818436
0.78,-0.9,-0.2983181415702255
0.8,-0.9,-0.3030205817594252
0.8200000000000001,-0.9,-0.3029442063585573
0.8400000000000001,-0.9,-0.298090219853318
0.8600000000000001,-0.9,-0.2885351725105261
0.8800000000000001,-0.9,-0.27442975313468576
0.9000000000000001,-0.9,-0.25599641261552325
0.9199999999999999,-0.9,-0.23352585574456947
0.94,-0.9,-0.20737245662693962
0.96,-0.9,-0.17794866999000203
0.98,-0.9,-0.1457185265259393
1.0,-0.9,-0.11119031485053414

-1.0,-0.88,-0.14571852652593936
-0.98,-0.88,-0.09548189541484961
-0.96,-0.88,-0.043739457774948004
-0.94,-0.88,0.008692777242750109
-0.92,-0.88,0.0609879219705166
-0.9,-0.88,0.11232125073638931
-0.88,-0.88,0.1618832062806863
-0.86,-0.88,0.20889216695759677
-0.84,-0.88,0.25260677337545406
-0.8200000000000001,-0.88,0.2923376200772086
-0.8,-0.88,0.327458127876316
-0.78,-0.88,0.35741442538481016
-0.76,-0.88,0.38173408389595714
-0.74,-0.88,0.40003356786717664
-0.72,-0.88,0.4120242835046606
-0.7,-0.88,0.4175171300598994
-0.6799999999999999,-0.88,0.4164254820614495
-0.6599999999999999,-0.88,0.4087665554503656
-0.64,-0.88,0.39466113607452535
-0.62,-0.88,0.3743316748236547
-0.6,-0.88,0.3480987794459116
-0.5800000000000001,-0.88,0.3163761583721751
-0.56,-0.88,0.27966409628695327
-0.54,-0.88,0.2385415643400528
-0.52,-0.88,0.19365708942568644
-0.5,-0.88,0.1457185265259392
-0.48,-0.88,0.09548189541484943
-0.45999999999999996,-0.88,0.04373945777494792
-0.43999999999999995,-0.88,-0.008692777242750112
-0.42000000000000004,-0.88,-0.060987921970516557
-0.4,-0.88,-0.11232125073638928
-0.38,-0.88,-0.16188320628068623
-0.36,-0.88,-0.20889216695759677
-0.33999999999999997,-0.88,-0.2526067733754541
-0.31999999999999995,-0.88,-0.29233762007720854
-0.29999999999999993,-0.88,-0.3274581278763159
-0.28,-0.88,-0.3574144253848101
-0.26,-0.88,-0.38173408389595714
-0.24,-0.88,-0.4000335678671766
-0.21999999999999997,-0.88,-0.41202428350466064
-0.19999999999999996,-0.88,-0.4175171300598993
-0.17999999999999994,-0.88,-0.4164254820614495
-0.16000000000000003,-0.88,-0.40876655545036555
-0.14,-0.88,-0.3946611360745253
-0.12,-0.88,-0.3743316748236548
-0.09999999999999998,-0.88,-0.3480987794459116
-0.07999999999999996,-0.88,-0.31637615837217514
-0.05999999999999994,-0.88,-0.2796640962869532
-0.040000000000000036,-0.88,-0.23854156434005275
-0.020000000000000018,-0.88,-0.1936570894256863
0.0,-0.88,-0.14571852652593903
0.020000000000000018,-0.88,-0.09548189541484939
0.040000000000000036,-0.88,-0.04373945777494795
0.06000000000000005,-0.88,0.008692777242750067
0.08000000000000007,-0.88,0.06098792197051649
0.10000000000000009,-0.88,0.11232125073638921
0.1200000000000001,-0.88,0.16188320628068625
0.14000000000000012,-0.88,0.20889216695759683
0.15999999999999992,-0.88,0.2526067733754542
0.17999999999999994,-0.88,0.29233762007720865
0.19999999999999996,-0.88,0.3274581278763159
0.21999999999999997,-0.88,0.35741442538481
0.24,-0.88,0.3817340838959571
0.26,-0.88,0.4000335678671766
0.28,-0.88,0.4120242835046606
0.30000000000000004,-0.88,0.4175171300598993
0.32000000000000006,-0.88,0.4164254820614495
0.3400000000000001,-0.88,0.4087665554503656
0.3600000000000001,-0.88,0.3946611360745253
0.3800000000000001,-0.88,0.37433167482365476
0.40000000000000013,-0.88,0.34809877944591155
0.41999999999999993,-0.88,0.316376158372175
0.43999999999999995,-0.88,0.2796640962869531
0.45999999999999996,-0.88,0.2385415643400527
0.48,-0.88,0.19365708942568644
0.5,-0.88,0.14571852652593925
0.52,-0.88,0.09548189541484955
0.54,-0.88,0.04373945777494802
0.56,-0.88,-0.008692777242750012
0.5800000000000001,-0.88,-0.060987921970516445
0.6000000000000001,-0.88,-0.11232125073638921
0.6200000000000001,-0.88,-0.1618832062806862
0.6400000000000001,-0.88,-0.20889216695759677
0.6600000000000001,-0.88,-0.2526067733754541
0.6799999999999999,-0.88,-0.29233762007720854
0.7,-0.88,-0.327458127876316
0.72,-0.88,-0.35741442538481005
0.74,-0.88,-0.3817340838959571
0.76,-0.88,-0.40003356786717664
0.78,-0.88,-0.4120242835046606
0.8,-0.88,-0.4175171300598994
0.8200000000000001,-0.88,-0.4164254820614495
0.8400000000000001,-0.88,-0.4087665554503656
0.8600000000000001,-0.88,-0.3946611360745254
0.8800000000000001,-0.88,-0.37433167482365487
0.9000000000000001,-0.88,-0.34809877944591155
0.9199999999999999,-0.88,-0.31637615837217503
0.94,-0.88,-0.2796640962869531
0.96,-0.88,-0.2385415643400528
0.98,-0.88,-0.19365708942568652
1.0,-0.88,-0.14571852652593936

-1.0,-0.86,-0.1779486699900022
-0.98,-0.86,-0.11454941881282607
-0.96,-0.86,-0.04934365487246564
-0.94,-0.86,0.0166402879817042
-0.92,-0.86,0.08236180355397633
-0.9,-0.86,0.14678442428364555
-0.88,-0.86,0.20889216695759677
-0.86,-0.86,0.26770555537249474
-0.84,-0.86,0.3222970672596214
-0.8200000000000001,-0.86,0.37180576186512815
-0.8,-0.86,0.4154508575000256
-0.78,-0.86,0.452544044933835
-0.76,-0.86,0.482500342442329
-0.74,-0.86,0.5048473213187741
-0.72,-0.86,0.5192325563568505
-0.7,-0.86,0.525429183806685
-0.6799999999999999,-0.86,0.5233394791517076
-0.6599999999999999,-0.86,0.5129963982826569
-0.64,-0.86,0.4945630577634943
-0.62,-0.86,0.46833016238575115
-0.6,-0.86,0.43471142058030654
-0.5800000000000001,-0.86,0.39423701998829536
-0.56,-0.86,0.34754526608528824
-0.54,-0.86,0.29537251572263756
-0.52,-0.86,0.2385415643400528
-0.5,-0.86,0.17794866999000192
-0.48,-0.86,0.1145494188128259
-0.45999999999999996,-0.86,0.04934365487246555
-0.43999999999999995,-0.86,-0.016640287981704208
-0.42000000000000004,-0.86,-0.08236180355397628
-0.4,-0.86,-0.1467844242836455
-0.38,-0.86,-0.20889216695759674
-0.36,-0.86,-0.26770555537249474
-0.33999999999999997,-0.86,-0.3222970672596213
-0.31999999999999995,-0.86,-0.37180576186512804
-0.29999999999999993,-0.86,-0.41545085750002547
-0.28,-0.86,-0.452544044933835
-0.26,-0.86,-0.48250034244232903
-0.24,-0.86,-0.5048473213187742
-0.21999999999999997,-0.86,-0.5192325563568505
-0.19999999999999996,-0.86,-0.525429183806685
-0.17999999999999994,-0.86,-0.5233394791517076
-0.16000000000000003,-0.86,-0.5129963982826568
-0.14,-0.86,-0.49456305776349435
-0.12,-0.86,-0.46833016238575126
-0.09999999999999998,-0.86,-0.43471142058030665
-0.07999999999999996,-0.86,-0.39423701998829536
-0.05999999999999994,-0.86,-0.3475452660852882
-0.040000000000000036,-0.86,-0.2953725157226375
-0.020000000000000018,-0.86,-0.23854156434005266
0.0,-0.86,-0.1779486699900018
0.020000000000000018,-0.86,-0.11454941881282583
0.040000000000000036,-0.86,-0.04934365487246558
0.06000000000000005,-0.86,0.01664028798170413
0.08000000000000007,-0.86,0.08236180355397618
0.10000000000000009,-0.86,0.14678442428364544
0.1200000000000001,-0.86,0.20889216695759674
0.14000000000000012,-0.86,0.2677055553724948
0.15999999999999992,-0.86,0.3222970672596215