TITLE = "Solution" 
VARIABLES = "x", "y", "sol" 
ZONE STRANDID=1, SOLUTIONTIME= 0.7600000000000005, I= 101, J =101, DATAPACKING=POINT 
-1.0,-1.0,0.770008592790946
-0.98,-1.0,0.7717910547642117
-0.96,-1.0,0.7614019107582177
-0.94,-1.0,0.7390050037801124
-0.92,-1.0,0.7049535464322041
-0.9,-1.0,0.6597845505382237
-0.88,-1.0,0.6042103581460695
-0.86,-1.0,0.5391074074681791
-0.84,-1.0,0.4655024109273611
-0.8200000000000001,-1.0,0.3845561632885569
-0.8,-1.0,0.2975452352319756
-0.78,-1.0,0.20584184107087794
-0.76,-1.0,0.11089219811213694
-0.74,-1.0,0.014193718945378997
-0.72,-1.0,-0.08272860364806428
-0.7,-1.0,-0.17834624674230534
-0.6799999999999999,-1.0,-0.27115126298653686
-0.6599999999999999,-1.0,-0.35968006183555745
-0.64,-1.0,-0.44253649124697736
-0.62,-1.0,-0.5184138558329464
-0.6,-1.0,-0.5861155242270032
-0.5800000000000001,-1.0,-0.6445738006755571
-0.56,-1.0,-0.6928667632377331
-0.54,-1.0,-0.7302328030451081
-0.52,-1.0,-0.7560826353285294
-0.5,-1.0,-0.7700085927909461
-0.48,-1.0,-0.7717910547642117
-0.45999999999999996,-1.0,-0.761401910758218
-0.43999999999999995,-1.0,-0.7390050037801126
-0.42000000000000004,-1.0,-0.7049535464322042
-0.4,-1.0,-0.6597845505382238
-0.38,-1.0,-0.6042103581460695
-0.36,-1.0,-0.5391074074681792
-0.33999999999999997,-1.0,-0.4655024109273612
-0.31999999999999995,-1.0,-0.38455616328855713
-0.29999999999999993,-1.0,-0.29754523523197574
-0.28,-1.0,-0.20584184107087802
-0.26,-1.0,-0.11089219811213685
-0.24,-1.0,-0.014193718945379
-0.21999999999999997,-1.0,0.08272860364806438
-0.19999999999999996,-1.0,0.17834624674230548
-0.17999999999999994,-1.0,0.27115126298653697
-0.16000000000000003,-1.0,0.3596800618355577
-0.14,-1.0,0.44253649124697736
-0.12,-1.0,0.5184138558329466
-0.09999999999999998,-1.0,0.5861155242270034
-0.07999999999999996,-1.0,0.6445738006755574
-0.05999999999999994,-1.0,0.6928667632377332
-0.040000000000000036,-1.0,0.7302328030451081
-0.020000000000000018,-1.0,0.7560826353285294
0.0,-1.0,0.7700085927909462
0.020000000000000018,-1.0,0.7717910547642116
0.040000000000000036,-1.0,0.761401910758218
0.06000000000000005,-1.0,0.7390050037801128
0.08000000000000007,-1.0,0.7049535464322042
0.10000000000000009,-1.0,0.6597845505382236
0.1200000000000001,-1.0,0.6042103581460695
0.14000000000000012,-1.0,0.5391074074681792
0.15999999999999992,-1.0,0.46550241092736117
0.17999999999999994,-1.0,0.38455616328855713
0.19999999999999996,-1.0,0.2975452352319757
0.21999999999999997,-1.0,0.20584184107087797
0.24,-1.0,0.11089219811213681
0.26,-1.0,0.014193718945378934
0.28,-1.0,-0.08272860364806435
0.30000000000000004,-1.0,-0.17834624674230545
0.32000000000000006,-1.0,-0.27115126298653697
0.3400000000000001,-1.0,-0.3596800618355575
0.3600000000000001,-1.0,-0.4425364912469773
0.3800000000000001,-1.0,-0.5184138558329462
0.40000000000000013,-1.0,-0.5861155242270032
0.41999999999999993,-1.0,-0.6445738006755575
0.43999999999999995,-1.0,-0.6928667632377332
0.45999999999999996,-1.0,-0.7302328030451082
0.48,-1.0,-0.7560826353285292
0.5,-1.0,-0.7700085927909461
0.52,-1.0,-0.7717910547642117
0.54,-1.0,-0.761401910758218
0.56,-1.0,-0.7390050037801128
0.5800000000000001,-1.0,-0.7049535464322042
0.6000000000000001,-1.0,-0.6597845505382236
0.6200000000000001,-1.0,-0.6042103581460694
0.6400000000000001,-1.0,-0.5391074074681792
0.6600000000000001,-1.0,-0.465502410927361
0.6799999999999999,-1.0,-0.3845561632885571
0.7,-1.0,-0.29754523523197557
0.72,-1.0,-0.20584184107087783
0.74,-1.0,-0.11089219811213671
0.76,-1.0,-0.014193718945378882
0.78,-1.0,0.08272860364806432
0.8,-1.0,0.17834624674230543
0.8200000000000001,-1.0,0.27115126298653697
0.8400000000000001,-1.0,0.3596800618355576
0.8600000000000001,-1.0,0.4425364912469774
0.8800000000000001,-1.0,0.5184138558329465
0.9000000000000001,-1.0,0.5861155242270033
0.9199999999999999,-1.0,0.6445738006755573
0.94,-1.0,0.6928667632377331
0.96,-1.0,0.730232803045108
0.98,-1.0,0.7560826353285295
1.0,-1.0,0.770008592790946

-1.0,-0.98,0.7717910547642118
-0.98,-0.98,0.7700085927909435
-0.96,-0.98,0.7560826353285254
-0.94,-0.98,0.7302328030451033
-0.92,-0.98,0.6928667632377278
-0.9,-0.98,0.6445738006755513
-0.88,-0.98,0.5861155242269969
-0.86,-0.98,0.5184138558329404
-0.84,-0.98,0.44253649124697175
-0.8200000000000001,-0.98,0.35968006183555284
-0.8,-0.98,0.27115126298653286
-0.78,-0.98,0.17834624674230207
-0.76,-0.98,0.08272860364806114
-0.74,-0.98,-0.014193718945382034
-0.72,-0.98,-0.11089219811213998
-0.7,-0.98,-0.20584184107088155
-0.6799999999999999,-0.98,-0.2975452352319797
-0.6599999999999999,-0.98,-0.38455616328856174
-0.64,-0.98,-0.46550241092736633
-0.62,-0.98,-0.5391074074681848
-0.6,-0.98,-0.6042103581460747
-0.5800000000000001,-0.98,-0.6597845505382284
-0.56,-0.98,-0.7049535464322081
-0.54,-0.98,-0.7390050037801158
-0.52,-0.98,-0.76140191075822
-0.5,-0.98,-0.7717910547642117
-0.48,-0.98,-0.7700085927909438
-0.45999999999999996,-0.98,-0.7560826353285255
-0.43999999999999995,-0.98,-0.7302328030451033
-0.42000000000000004,-0.98,-0.6928667632377278
-0.4,-0.98,-0.6445738006755514
-0.38,-0.98,-0.5861155242269969
-0.36,-0.98,-0.5184138558329406
-0.33999999999999997,-0.98,-0.44253649124697203
-0.31999999999999995,-0.98,-0.359680061835553
-0.29999999999999993,-0.98,-0.271151262986533
-0.28,-0.98,-0.17834624674230204
-0.26,-0.98,-0.08272860364806114
-0.24,-0.98,0.014193718945382131
-0.21999999999999997,-0.98,0.11089219811214011
-0.19999999999999996,-0.98,0.20584184107088166
-0.17999999999999994,-0.98,0.2975452352319798
-0.16000000000000003,-0.98,0.3845561632885618
-0.14,-0.98,0.46550241092736644
-0.12,-0.98,0.539107407468185
-0.09999999999999998,-0.98,0.604210358146075
-0.07999999999999996,-0.98,0.6597845505382285
-0.05999999999999994,-0.98,0.7049535464322082
-0.040000000000000036,-0.98,0.7390050037801159
-0.020000000000000018,-0.98,0.7614019107582201
0.0,-0.98,0.7717910547642116
0.020000000000000018,-0.98,0.7700085927909438
0.040000000000000036,-0.98,0.7560826353285258
0.06000000000000005,-0.98,0.7302328030451033
0.08000000000000007,-0.98,0.6928667632377277
0.10000000000000009,-0.98,0.6445738006755513
0.1200000000000001,-0.98,0.5861155242269968
0.14000000000000012,-0.98,0.5184138558329405
0.15999999999999992,-0.98,0.44253649124697203
0.17999999999999994,-0.98,0.35968006183555296
0.19999999999999996,-0.98,0.27115126298653297
0.21999999999999997,-0.98,0.17834624674230198
0.24,-0.98,0.08272860364806109
0.26,-0.98,-0.014193718945382138
0.28,-0.98,-0.1108921981121401
0.30000000000000004,-0.98,-0.20584184107088163
0.32000000000000006,-0.98,-0.2975452352319796
0.3400000000000001,-0.98,-0.38455616328856174
0.3600000000000001,-0.98,-0.46550241092736616
0.3800000000000001,-0.98,-0.5391074074681849
0.40000000000000013,-0.98,-0.6042103581460749
0.41999999999999993,-0.98,-0.6597845505382284
0.43999999999999995,-0.98,-0.7049535464322083
0.45999999999999996,-0.98,-0.7390050037801156
0.48,-0.98,-0.7614019107582198
0.5,-0.98,-0.7717910547642117
0.52,-0.98,-0.7700085927909438
0.54,-0.98,-0.7560826353285258
0.56,-0.98,-0.7302328030451032
0.5800000000000001,-0.98,-0.6928667632377277
0.6000000000000001,-0.98,-0.6445738006755513
0.6200000000000001,-0.98,-0.5861155242269969
0.6400000000000001,-0.98,-0.5184138558329404
0.6600000000000001,-0.98,-0.4425364912469719
0.6799999999999999,-0.98,-0.35968006183555284
0.7,-0.98,-0.2711512629865328
0.72,-0.98,-0.17834624674230184
0.74,-0.98,-0.08272860364806105
0.76,-0.98,0.014193718945382124
0.78,-0.98,0.1108921981121401
0.8,-0.98,0.20584184107088163
0.8200000000000001,-0.98,0.2975452352319798
0.8400000000000001,-0.98,0.38455616328856185
0.8600000000000001,-0.98,0.46550241092736633
0.8800000000000001,-0.98,0.5391074074681849
0.9000000000000001,-0.98,0.6042103581460747
0.9199999999999999,-0.98,0.6597845505382285
0.94,-0.98,0.7049535464322081
0.96,-0.98,0.7390050037801159
0.98,-0.98,0.7614019107582198
1.0,-0.98,0.7717910547642118

-1.0,-0.96,0.7614019107582176
-0.98,-0.96,0.7560826353285254
-0.96,-0.96,0.738839485077829
-0.94,-0.96,0.7099443947861409
-0.92,-0.96,0.6698530572884506
-0.9,-0.96,0.6191977369265009
-0.88,-0.96,0.5587772983624222
-0.86,-0.96,0.48954460800578947
-0.84,-0.96,0.4125915067411324
-0.8200000000000001,-0.96,0.3291315909449479
-0.8,-0.96,0.24048107334587954
-0.78,-0.96,0.1480380255637162
-0.76,-0.96,0.05326032968478324
-0.74,-0.96,-0.0423573134094577
-0.72,-0.96,-0.13730695636819917
-0.7,-0.96,-0.23009118660181416
-0.6799999999999999,-0.96,-0.3192467413729063
-0.6599999999999999,-0.96,-0.40336758432378844
-0.64,-0.96,-0.48112707950976896
-0.62,-0.96,-0.5512989132404945
-0.6,-0.96,-0.6127764337794098
-0.5800000000000001,-0.96,-0.6645901039027254
-0.56,-0.96,-0.7059227910806111
-0.54,-0.96,-0.7361226541453203
-0.52,-0.96,-0.7547134232157984
-0.5,-0.96,-0.761401910758218
-0.48,-0.96,-0.7560826353285256
-0.45999999999999996,-0.96,-0.7388394850778292
-0.43999999999999995,-0.96,-0.7099443947861409
-0.42000000000000004,-0.96,-0.6698530572884507
-0.4,-0.96,-0.6191977369265012
-0.38,-0.96,-0.5587772983624223
-0.36,-0.96,-0.4895446080057899
-0.33999999999999997,-0.96,-0.41259150674113254
-0.31999999999999995,-0.96,-0.3291315909449481
-0.29999999999999993,-0.96,-0.2404810733458795
-0.28,-0.96,-0.14803802556371623
-0.26,-0.96,-0.05326032968478315
-0.24,-0.96,0.042357313409457795
-0.21999999999999997,-0.96,0.13730695636819926
-0.19999999999999996,-0.96,0.2300911866018142
-0.17999999999999994,-0.96,0.3192467413729064
-0.16000000000000003,-0.96,0.40336758432378855
-0.14,-0.96,0.4811270795097692
-0.12,-0.96,0.5512989132404947
-0.09999999999999998,-0.96,0.6127764337794099
-0.07999999999999996,-0.96,0.6645901039027255
-0.05999999999999994,-0.96,0.7059227910806111
-0.040000000000000036,-0.96,0.7361226541453203
-0.020000000000000018,-0.96,0.7547134232157983
0.0,-0.96,0.7614019107582178
0.020000000000000018,-0.96,0.7560826353285258
0.040000000000000036,-0.96,0.7388394850778292
0.06000000000000005,-0.96,0.7099443947861409
0.08000000000000007,-0.96,0.6698530572884506
0.10000000000000009,-0.96,0.6191977369265009
0.1200000000000001,-0.96,0.5587772983624222
0.14000000000000012,-0.96,0.48954460800578986
0.15999999999999992,-0.96,0.4125915067411325
0.17999999999999994,-0.96,0.32913159094494804
0.19999999999999996,-0.96,0.24048107334587945
0.21999999999999997,-0.96,0.14803802556371615
0.24,-0.96,0.05326032968478314
0.26,-0.96,-0.042357313409457836
0.28,-0.96,-0.13730695636819928
0.30000000000000004,-0.96,-0.23009118660181413
0.32000000000000006,-0.96,-0.3192467413729064
0.3400000000000001,-0.96,-0.4033675843237883
0.3600000000000001,-0.96,-0.4811270795097691
0.3800000000000001,-0.96,-0.5512989132404947
0.40000000000000013,-0.96,-0.6127764337794097
0.41999999999999993,-0.96,-0.6645901039027255
0.43999999999999995,-0.96,-0.7059227910806107
0.45999999999999996,-0.96,-0.7361226541453201
0.48,-0.96,-0.7547134232157985
0.5,-0.96,-0.7614019107582178
0.52,-0.96,-0.7560826353285257
0.54,-0.96,-0.7388394850778292
0.56,-0.96,-0.7099443947861408
0.5800000000000001,-0.96,-0.6698530572884506
0.6000000000000001,-0.96,-0.6191977369265009
0.6200000000000001,-0.96,-0.5587772983624222
0.6400000000000001,-0.96,-0.48954460800578964
0.6600000000000001,-0.96,-0.41259150674113243
0.6799999999999999,-0.96,-0.32913159094494787
0.7,-0.96,-0.24048107334587926
0.72,-0.96,-0.14803802556371612
0.74,-0.96,-0.053260329684783135
0.76,-0.96,0.042357313409457836
0.78,-0.96,0.13730695636819928
0.8,-0.96,0.23009118660181424
0.8200000000000001,-0.96,0.3192467413729065
0.8400000000000001,-0.96,0.40336758432378844
0.8600000000000001,-0.96,0.4811270795097691
0.8800000000000001,-0.96,0.5512989132404946
0.9000000000000001,-0.96,0.6127764337794099
0.9199999999999999,-0.96,0.6645901039027255
0.94,-0.96,0.7059227910806112
0.96,-0.96,0.7361226541453202
0.98,-0.96,0.7547134232157985
1.0,-0.96,0.7614019107582176

-1.0,-0.94,0.7390050037801125
-0.98,-0.94,0.7302328030451033
-0.96,-0.94,0.7099443947861409
-0.94,-0.94,0.6784597393211766
-0.92,-0.94,0.6362753684749141
-0.9,-0.94,0.5840565549753214
-0.88,-0.94,0.5226268207052935
-0.86,-0.94,0.4529549492706143
-0.84,-0.94,0.37613970770376587
-0.8200000000000001,-0.94,0.2933925182514591
-0.8,-0.94,0.20601835352213138
-0.78,-0.94,0.11539515628836078
-0.76,-0.94,0.022952108506197486
-0.74,-0.94,-0.06985290773803378
-0.72,-0.94,-0.16155630189913173
-0.7,-0.94,-0.2507118566702238
-0.6799999999999999,-0.94,-0.33591353569362287
-0.6599999999999999,-0.94,-0.41581765759411343
-0.64,-0.94,-0.4891640866369165
-0.62,-0.94,-0.5547961058209939
-0.6,-0.94,-0.6116786589971451
-0.5800000000000001,-0.94,-0.6589146743217926
-0.56,-0.94,-0.6957592116158381
-0.54,-0.94,-0.7216312105162942
-0.52,-0.94,-0.7361226541453189
-0.5,-0.94,-0.7390050037801126
-0.48,-0.94,-0.7302328030451032
-0.45999999999999996,-0.94,-0.7099443947861408
-0.43999999999999995,-0.94,-0.6784597393211766
-0.42000000000000004,-0.94,-0.6362753684749143
-0.4,-0.94,-0.5840565549753215
-0.38,-0.94,-0.5226268207052941
-0.36,-0.94,-0.4529549492706146
-0.33999999999999997,-0.94,-0.3761397077037661
-0.31999999999999995,-0.94,-0.2933925182514591
-0.29999999999999993,-0.94,-0.2060183535221314
-0.28,-0.94,-0.11539515628836071
-0.26,-0.94,-0.02295210850619743
-0.24,-0.94,0.06985290773803382
-0.21999999999999997,-0.94,0.1615563018991318
-0.19999999999999996,-0.94,0.25071185667022383
-0.17999999999999994,-0.94,0.3359135356936229
-0.16000000000000003,-0.94,0.4158176575941136
-0.14,-0.94,0.4891640866369166
-0.12,-0.94,0.554796105820994
-0.09999999999999998,-0.94,0.6116786589971454
-0.07999999999999996,-0.94,0.6589146743217925
-0.05999999999999994,-0.94,0.695759211615838
-0.040000000000000036,-0.94,0.7216312105162941
-0.020000000000000018,-0.94,0.7361226541453187
0.0,-0.94,0.7390050037801126
0.020000000000000018,-0.94,0.7302328030451033
0.040000000000000036,-0.94,0.709944394786141
0.06000000000000005,-0.94,0.6784597393211765
0.08000000000000007,-0.94,0.6362753684749142
0.10000000000000009,-0.94,0.5840565549753215
0.1200000000000001,-0.94,0.522626820705294
0.14000000000000012,-0.94,0.45295494927061447
0.15999999999999992,-0.94,0.37613970770376604
0.17999999999999994,-0.94,0.29339251825145907
0.19999999999999996,-0.94,0.20601835352213135
0.21999999999999997,-0.94,0.1153951562883607
0.24,-0.94,0.02295210850619736
0.26,-0.94,-0.06985290773803385
0.28,-0.94,-0.16155630189913175
0.30000000000000004,-0.94,-0.2507118566702239
0.32000000000000006,-0.94,-0.3359135356936228
0.3400000000000001,-0.94,-0.4158176575941135
0.3600000000000001,-0.94,-0.4891640866369166
0.3800000000000001,-0.94,-0.5547961058209939
0.40000000000000013,-0.94,-0.6116786589971455
0.41999999999999993,-0.94,-0.6589146743217924
0.43999999999999995,-0.94,-0.6957592116158378
0.45999999999999996,-0.94,-0.7216312105162943
0.48,-0.94,-0.7361226541453187
0.5,-0.94,-0.7390050037801126
0.52,-0.94,-0.7302328030451032
0.54,-0.94,-0.7099443947861408
0.56,-0.94,-0.6784597393211765
0.5800000000000001,-0.94,-0.6362753684749141
0.6000000000000001,-0.94,-0.5840565549753214
0.6200000000000001,-0.94,-0.5226268207052938
0.6400000000000001,-0.94,-0.4529549492706144
0.6600000000000001,-0.94,-0.3761397077037658
0.6799999999999999,-0.94,-0.29339251825145884
0.7,-0.94,-0.20601835352213135
0.72,-0.94,-0.1153951562883607
0.74,-0.94,-0.022952108506197347
0.76,-0.94,0.06985290773803385
0.78,-0.94,0.16155630189913187
0.8,-0.94,0.25071185667022394
0.8200000000000001,-0.94,0.3359135356936228
0.8400000000000001,-0.94,0.4158176575941135
0.8600000000000001,-0.94,0.48916408663691646
0.8800000000000001,-0.94,0.554796105820994
0.9000000000000001,-0.94,0.6116786589971454
0.9199999999999999,-0.94,0.6589146743217927
0.94,-0.94,0.695759211615838
0.96,-0.94,0.7216312105162943
0.98,-0.94,0.7361226541453185
1.0,-0.94,0.7390050037801125

-1.0,-0.92,0.7049535464322043
-0.98,-0.92,0.6928667632377278
-0.96,-0.92,0.6698530572884508
-0.94,-0.92,0.6362753684749141
-0.92,-0.92,0.5926632370080475
-0.9,-0.92,0.5397044522537067
-0.88,-0.92,0.4782342058835137
-0.86,-0.92,0.4092219204032702
-0.84,-0.92,0.3337559607809411
-0.8200000000000001,-0.92,0.2530264702809494
-0.8,-0.92,0.1683066011939405
-0.78,-0.92,0.08093243646461279
-0.76,-0.92,-0.007718081134456132
-0.74,-0.92,-0.0962468799834764
-0.72,-0.92,-0.18325780804005826
-0.7,-0.92,-0.2673786509909404
-0.6799999999999999,-0.92,-0.34728277289143095
-0.6599999999999999,-0.92,-0.4217100380067508
-0.64,-0.92,-0.4894866839053384
-0.62,-0.92,-0.5495438323935674
-0.6,-0.92,-0.6009343463633772
-0.5800000000000001,-0.92,-0.6428477667102581
-0.56,-0.92,-0.6746230937574762
-0.54,-0.92,-0.695759211615837
-0.52,-0.92,-0.7059227910806087
-0.5,-0.92,-0.7049535464322041
-0.48,-0.92,-0.6928667632377276
-0.45999999999999996,-0.92,-0.6698530572884507
-0.43999999999999995,-0.92,-0.6362753684749143
-0.42000000000000004,-0.92,-0.5926632370080475
-0.4,-0.92,-0.5397044522537072
-0.38,-0.92,-0.478234205883514
-0.36,-0.92,-0.4092219204032704
-0.33999999999999997,-0.92,-0.33375596078094105
-0.31999999999999995,-0.92,-0.2530264702809495
-0.29999999999999993,-0.92,-0.16830660119394042
-0.28,-0.92,-0.08093243646461276
-0.26,-0.92,0.007718081134456153
-0.24,-0.92,0.0962468799834765
-0.21999999999999997,-0.92,0.18325780804005834
-0.19999999999999996,-0.92,0.26737865099094044
-0.17999999999999994,-0.92,0.3472827728914311
-0.16000000000000003,-0.92,0.42171003800675083
-0.14,-0.92,0.4894866839053386
-0.12,-0.92,0.5495438323935675
-0.09999999999999998,-0.92,0.6009343463633771
-0.07999999999999996,-0.92,0.6428477667102581
-0.05999999999999994,-0.92,0.674623093757476
-0.040000000000000036,-0.92,0.6957592116158369
-0.020000000000000018,-0.92,0.7059227910806087
0.0,-0.92,0.7049535464322041
0.020000000000000018,-0.92,0.6928667632377278
0.040000000000000036,-0.92,0.6698530572884505
0.06000000000000005,-0.92,0.6362753684749143
0.08000000000000007,-0.92,0.5926632370080473
0.10000000000000009,-0.92,0.5397044522537071
0.1200000000000001,-0.92,0.47823420588351384
0.14000000000000012,-0.92,0.4092219204032704
0.15999999999999992,-0.92,0.33375596078094105
0.17999999999999994,-0.92,0.2530264702809494
0.19999999999999996,-0.92,0.16830660119394042
0.21999999999999997,-0.92,0.0809324364646127
0.24,-0.92,-0.007718081134456187
0.26,-0.92,-0.09624687998347649
0.28,-0.92,-0.18325780804005837
0.30000000000000004,-0.92,-0.26737865099094027
0.32000000000000006,-0.92,-0.347282772891431
0.3400000000000001,-0.92,-0.42171003800675083
0.3600000000000001,-0.92,-0.4894866839053385
0.3800000000000001,-0.92,-0.5495438323935677
0.40000000000000013,-0.92,-0.600934346363377
0.41999999999999993,-0.92,-0.642847766710258
0.43999999999999995,-0.92,-0.6746230937574762
0.45999999999999996,-0.92,-0.6957592116158369
0.48,-0.92,-0.7059227910806087
0.5,-0.92,-0.7049535464322041
0.52,-0.92,-0.6928667632377277
0.54,-0.92,-0.6698530572884505
0.56,-0.92,-0.6362753684749141
0.5800000000000001,-0.92,-0.5926632370080472
0.6000000000000001,-0.92,-0.5397044522537069
0.6200000000000001,-0.92,-0.4782342058835139
0.6400000000000001,-0.92,-0.4092219204032701
0.6600000000000001,-0.92,-0.3337559607809408
0.6799999999999999,-0.92,-0.25302647028094943
0.7,-0.92,-0.1683066011939404
0.72,-0.92,-0.08093243646461265
0.74,-0.92,0.0077180811344561805
0.76,-0.92,0.09624687998347656
0.78,-0.92,0.18325780804005842
0.8,-0.92,0.2673786509909403
0.8200000000000001,-0.92,0.347282772891431
0.8400000000000001,-0.92,0.4217100380067507
0.8600000000000001,-0.92,0.48948668390533856
0.8800000000000001,-0.92,0.5495438323935675
0.9000000000000001,-0.92,0.6009343463633772
0.9199999999999999,-0.92,0.642847766710258
0.94,-0.92,0.6746230937574763
0.96,-0.92,0.6957592116158368
0.98,-0.92,0.7059227910806086
1.0,-0.92,0.7049535464322043

-1.0,-0.9,0.6597845505382237
-0.98,-0.9,0.6445738006755515
-0.96,-0.9,0.6191977369265009
-0.94,-0.9,0.5840565549753216
-0.92,-0.9,0.5397044522537067
-0.9,-0.9,0.48684088791623964
-0.88,-0.9,0.42629955195168345
-0.86,-0.9,0.3590352173938405
-0.84,-0.9,0.28610868298045367
-0.8200000000000001,-0.9,0.20867004372342263
-0.8,-0.9,0.12794055322343093
-0.78,-0.9,0.04519336377112367
-0.76,-0.9,-0.03826655202506103
-0.74,-0.9,-0.12112298143648051
-0.72,-0.9,-0.20206922907528493
-0.7,-0.9,-0.2798287242612654
-0.6799999999999999,-0.9,-0.35317515330406835
-0.6599999999999999,-0.9,-0.42095179920265596
-0.64,-0.9,-0.4820897837634021
-0.62,-0.9,-0.5356249244477219
-0.6,-0.9,-0.5807129401066805
-0.5800000000000001,-0.9,-0.6166427657990611
-0.56,-0.9,-0.6428477667102575
-0.54,-0.9,-0.6589146743217911
-0.52,-0.9,-0.6645901039027224
-0.5,-0.9,-0.6597845505382235
-0.48,-0.9,-0.6445738006755513
-0.45999999999999996,-0.9,-0.619197736926501
-0.43999999999999995,-0.9,-0.5840565549753214
-0.42000000000000004,-0.9,-0.5397044522537072
-0.4,-0.9,-0.48684088791624003
-0.38,-0.9,-0.4262995519516836
-0.36,-0.9,-0.3590352173938405
-0.33999999999999997,-0.9,-0.2861086829804538
-0.31999999999999995,-0.9,-0.20867004372342254
-0.29999999999999993,-0.9,-0.1279405532234309
-0.28,-0.9,-0.045193363771123686
-0.26,-0.9,0.03826655202506109
-0.24,-0.9,0.12112298143648062
-0.21999999999999997,-0.9,0.202069229075285
-0.19999999999999996,-0.9,0.2798287242612656
-0.17999999999999994,-0.9,0.35317515330406846
-0.16000000000000003,-0.9,0.4209517992026562
-0.14,-0.9,0.4820897837634022
-0.12,-0.9,0.5356249244477218
-0.09999999999999998,-0.9,0.5807129401066804
-0.07999999999999996,-0.9,0.6166427657990609
-0.05999999999999994,-0.9,0.6428477667102573
-0.040000000000000036,-0.9,0.658914674321791
-0.020000000000000018,-0.9,0.6645901039027224
0.0,-0.9,0.6597845505382237
0.020000000000000018,-0.9,0.6445738006755511
0.040000000000000036,-0.9,0.6191977369265012
0.06000000000000005,-0.9,0.5840565549753213
0.08000000000000007,-0.9,0.539704452253707
0.10000000000000009,-0.9,0.48684088791623975
0.1200000000000001,-0.9,0.4262995519516837
0.14000000000000012,-0.9,0.3590352173938404
0.15999999999999992,-0.9,0.28610868298045367
0.17999999999999994,-0.9,0.20867004372342254
0.19999999999999996,-0.9,0.12794055322343084
0.21999999999999997,-0.9,0.045193363771123644
0.24,-0.9,-0.038266552025061115
0.26,-0.9,-0.12112298143648062
0.28,-0.9,-0.20206922907528493
0.30000000000000004,-0.9,-0.2798287242612655
0.32000000000000006,-0.9,-0.35317515330406846
0.3400000000000001,-0.9,-0.42095179920265613
0.3600000000000001,-0.9,-0.4820897837634023
0.3800000000000001,-0.9,-0.5356249244477216
0.40000000000000013,-0.9,-0.5807129401066803
0.41999999999999993,-0.9,-0.616642765799061
0.43999999999999995,-0.9,-0.6428477667102572
0.45999999999999996,-0.9,-0.6589146743217911
0.48,-0.9,-0.6645901039027224
0.5,-0.9,-0.6597845505382236
0.52,-0.9,-0.644573800675551
0.54,-0.9,-0.6191977369265009
0.56,-0.9,-0.5840565549753214
0.5800000000000001,-0.9,-0.5397044522537069
0.6000000000000001,-0.9,-0.48684088791623986
0.6200000000000001,-0.9,-0.4262995519516834
0.6400000000000001,-0.9,-0.3590352173938402
0.6600000000000001,-0.9,-0.2861086829804537
0.6799999999999999,-0.9,-0.2086700437234225
0.7,-0.9,-0.1279405532234308
0.72,-0.9,-0.04519336377112364
0.74,-0.9,0.03826655202506117
0.76,-0.9,0.12112298143648072
0.78,-0.9,0.20206922907528496
0.8,-0.9,0.2798287242612655
0.8200000000000001,-0.9,0.35317515330406835
0.8400000000000001,-0.9,0.4209517992026562
0.8600000000000001,-0.9,0.48208978376340217
0.8800000000000001,-0.9,0.5356249244477219
0.9000000000000001,-0.9,0.5807129401066803
0.9199999999999999,-0.9,0.6166427657990611
0.94,-0.9,0.6428477667102571
0.96,-0.9,0.658914674321791
0.98,-0.9,0.6645901039027227
1.0,-0.9,0.6597845505382237

-1.0,-0.88,0.6042103581460697
-0.98,-0.88,0.5861155242269968
-0.96,-0.88,0.5587772983624223
-0.94,-0.88,0.5226268207052936
-0.92,-0.88,0.4782342058835137
-0.9,-0.88,0.42629955195168345
-0.88,-0.88,0.36764189942656644
-0.86,-0.88,0.3031863145288669
-0.84,-0.88,0.2339493003363221
-0.8200000000000001,-0.88,0.16102276592293532
-0.8,-0.88,0.08555680630060583
-0.78,-0.88,0.008741564733757149
-0.76,-0.88,-0.06821153653090066
-0.74,-0.88,-0.14408890111686948
-0.72,-0.88,-0.2176938976576877
-0.7,-0.88,-0.28786573138841315
-0.6799999999999999,-0.88,-0.3534977505724907
-0.6599999999999999,-0.88,-0.4135548990607199
-0.64,-0.88,-0.4670900397450396
-0.62,-0.88,-0.5132588914765152
-0.6,-0.88,-0.5513333438834059
-0.5800000000000001,-0.88,-0.58071294010668
-0.56,-0.88,-0.6009343463633762
-0.54,-0.88,-0.6116786589971434
-0.52,-0.88,-0.6127764337794059
-0.5,-0.88,-0.6042103581460695
-0.48,-0.88,-0.586115524226997
-0.45999999999999996,-0.88,-0.5587772983624222
-0.43999999999999995,-0.88,-0.522626820705294
-0.42000000000000004,-0.88,-0.478234205883514
-0.4,-0.88,-0.4262995519516837
-0.38,-0.88,-0.3676418994265665
-0.36,-0.88,-0.30318631452886696
-0.33999999999999997,-0.88,-0.23394930033632202
-0.31999999999999995,-0.88,-0.16102276592293527
-0.29999999999999993,-0.88,-0.08555680630060587
-0.28,-0.88,-0.008741564733757121
-0.26,-0.88,0.06821153653090076
-0.24,-0.88,0.14408890111686953
-0.21999999999999997,-0.88,0.21769389765768785
-0.19999999999999996,-0.88,0.2878657313884133
-0.17999999999999994,-0.88,0.3534977505724909
-0.16000000000000003,-0.88,0.41355489906072
-0.14,-0.88,0.46709003974503954
-0.12,-0.88,0.5132588914765152
-0.09999999999999998,-0.88,0.5513333438834058
-0.07999999999999996,-0.88,0.58071294010668
-0.05999999999999994,-0.88,0.600934346363376
-0.040000000000000036,-0.88,0.6116786589971432
-0.020000000000000018,-0.88,0.612776433779406
0.0,-0.88,0.6042103581460693
0.020000000000000018,-0.88,0.586115524226997
0.040000000000000036,-0.88,0.5587772983624221
0.06000000000000005,-0.88,0.5226268207052939
0.08000000000000007,-0.88,0.47823420588351373
0.10000000000000009,-0.88,0.4262995519516837
0.1200000000000001,-0.88,0.36764189942656644
0.14000000000000012,-0.88,0.30318631452886696
0.15999999999999992,-0.88,0.23394930033632202
0.17999999999999994,-0.88,0.16102276592293524
0.19999999999999996,-0.88,0.08555680630060583
0.21999999999999997,-0.88,0.008741564733757066
0.24,-0.88,-0.06821153653090077
0.26,-0.88,-0.1440889011168695
0.28,-0.88,-0.21769389765768782
0.30000000000000004,-0.88,-0.2878657313884133
0.32000000000000006,-0.88,-0.3534977505724908
0.3400000000000001,-0.88,-0.41355489906072
0.3600000000000001,-0.88,-0.4670900397450395
0.3800000000000001,-0.88,-0.5132588914765149
0.40000000000000013,-0.88,-0.5513333438834059
0.41999999999999993,-0.88,-0.5807129401066798
0.43999999999999995,-0.88,-0.6009343463633762
0.45999999999999996,-0.88,-0.6116786589971434
0.48,-0.88,-0.6127764337794058
0.5,-0.88,-0.6042103581460693
0.52,-0.88,-0.5861155242269969
0.54,-0.88,-0.5587772983624222
0.56,-0.88,-0.5226268207052938
0.5800000000000001,-0.88,-0.4782342058835139
0.6000000000000001,-0.88,-0.42629955195168345
0.6200000000000001,-0.88,-0.36764189942656617
0.6400000000000001,-0.88,-0.30318631452886696
0.6600000000000001,-0.88,-0.23394930033632202
0.6799999999999999,-0.88,-0.16102276592293516
0.7,-0.88,-0.08555680630060582
0.72,-0.88,-0.008741564733757031
0.74,-0.88,0.06821153653090084
0.76,-0.88,0.14408890111686953
0.78,-0.88,0.21769389765768782
0.8,-0.88,0.2878657313884132
0.8200000000000001,-0.88,0.3534977505724909
0.8400000000000001,-0.88,0.41355489906071996
0.8600000000000001,-0.88,0.4670900397450396
0.8800000000000001,-0.88,0.513258891476515
0.9000000000000001,-0.88,0.5513333438834059
0.9199999999999999,-0.88,0.5807129401066798
0.94,-0.88,0.600934346363376
0.96,-0.88,0.6116786589971436
0.98,-0.88,0.6127764337794062
1.0,-0.88,0.6042103581460697

-1.0,-0.86,0.5391074074681792
-0.98,-0.86,0.5184138558329404
-0.96,-0.86,0.48954460800578964
-0.94,-0.86,0.4529549492706143
-0.92,-0.86,0.4092219204032702
-0.9,-0.86,0.35903521739384053
-0.88,-0.86,0.3031863145288669
-0.86,-0.86,0.2425559823690481
-0.84,-0.86,0.1781003974713486
-0.8200000000000001,-0.86,0.11083606291350535
-0.8,-0.86,0.04182377743326157
-0.78,-0.86,-0.027848094001418463
-0.76,-0.86,-0.09708078435805123
-0.74,-0.86,-0.1647824527521079
-0.72,-0.86,-0.2298854034299979
-0.7,-0.86,-0.29136292396891317
-0.6799999999999999,-0.86,-0.34824547714506476
-0.6599999999999999,-0.86,-0.3996359911148743
-0.64,-0.86,-0.44472400677383295
-0.62,-0.86,-0.4827984591807238
-0.6,-0.86,-0.5132588914765147
-0.5800000000000001,-0.86,-0.5356249244477213
-0.56,-0.86,-0.5495438323935662
-0.54,-0.86,-0.5547961058209913
-0.52,-0.86,-0.5512989132404901
-0.5,-0.86,-0.5391074074681793
-0.48,-0.86,-0.5184138558329404
-0.45999999999999996,-0.86,-0.4895446080057899
-0.43999999999999995,-0.86,-0.4529549492706145
-0.42000000000000004,-0.86,-0.4092219204032703
-0.4,-0.86,-0.35903521739384053
-0.38,-0.86,-0.30318631452886696
-0.36,-0.86,-0.24255598236904805
-0.33999999999999997,-0.86,-0.17810039747134856
-0.31999999999999995,-0.86,-0.11083606291350541
-0.29999999999999993,-0.86,-0.04182377743326156
-0.28,-0.86,0.027848094001418553
-0.26,-0.86,0.09708078435805129
-0.24,-0.86,0.16478245275210798
-0.21999999999999997,-0.86,0.229885403429998
-0.19999999999999996,-0.86,0.29136292396891333
-0.17999999999999994,-0.86,0.34824547714506493
-0.16000000000000003,-0.86,0.3996359911148743
-0.14,-0.86,0.444724006773833
-0.12,-0.86,0.4827984591807237
-0.09999999999999998,-0.86,0.5132588914765148
-0.07999999999999996,-0.86,0.5356249244477211
-0.05999999999999994,-0.86,0.5495438323935663
-0.040000000000000036,-0.86,0.5547961058209914
-0.020000000000000018,-0.86,0.55129891324049
0.0,-0.86,0.5391074074681793
0.020000000000000018,-0.86,0.5184138558329403
0.040000000000000036,-0.86,0.48954460800578975
0.06000000000000005,-0.86,0.4529549492706143
0.08000000000000007,-0.86,0.40922192040327043
0.10000000000000009,-0.86,0.3590352173938404
0.1200000000000001,-0.86,0.3031863145288669
0.14000000000000012,-0.86,0.24255598236904802
0.15999999999999992,-0.86,0.17810039747134856
0.17999999999999994,-0.86,0.11083606291350537
0.19999999999999996,-0.86,0.04182377743326149
0.21999999999999997,-0.86,-0.027848094001418567
0.24,-0.86,-0.09708078435805127
0.26,-0.86,-0.16478245275210796
0.28,-0.86,-0.229885403429998
0.30000000000000004,-0.86,-0.2913629239689133
0.32000000000000006,-0.86,-0.3482454771450649
0.3400000000000001,-0.86,-0.3996359911148743
0.3600000000000001,-0.86,-0.44472400677383284
0.3800000000000001,-0.86,-0.48279845918072367
0.40000000000000013,-0.86,-0.5132588914765147