TITLE = "Solution" 
VARIABLES = "x", "y", "sol" 
ZONE STRANDID=1, SOLUTIONTIME= 0.7300000000000004, I= 101, J =101, DATAPACKING=POINT 
-1.0,-1.0,0.7648269463662286
-0.98,-1.0,0.7432115035948379
-0.96,-1.0,0.709875171438725
-0.94,-1.0,0.6653436837701505
-0.92,-1.0,0.6103193287514695
-0.9,-1.0,0.5456698733312837
-0.88,-1.0,0.47241487804128107
-0.86,-1.0,0.39170961791759895
-0.84,-1.0,0.3048268631233724
-0.8200000000000001,-1.0,0.21313680660294873
-0.8,-1.0,0.11808545532063945
-0.78,-1.0,0.021171825867091938
-0.76,-1.0,-0.07607569592781549
-0.74,-1.0,-0.1721234585525236
-0.72,-1.0,-0.26545673141428816
-0.7,-1.0,-0.35460359304548467
-0.6799999999999999,-1.0,-0.43815814418443516
-0.6599999999999999,-1.0,-0.5148026796466088
-0.64,-1.0,-0.5833284693225408
-0.62,-1.0,-0.6426548205737194
-0.6,-1.0,-0.6918461214010689
-0.5800000000000001,-1.0,-0.730126595605084
-0.56,-1.0,-0.7568925372399197
-0.54,-1.0,-0.7717218314167956
-0.52,-1.0,-0.7743806113079527
-0.5,-1.0,-0.7648269463662287
-0.48,-1.0,-0.7432115035948381
-0.45999999999999996,-1.0,-0.709875171438725
-0.43999999999999995,-1.0,-0.6653436837701506
-0.42000000000000004,-1.0,-0.6103193287514697
-0.4,-1.0,-0.5456698733312838
-0.38,-1.0,-0.4724148780412814
-0.36,-1.0,-0.39170961791759906
-0.33999999999999997,-1.0,-0.3048268631233726
-0.31999999999999995,-1.0,-0.21313680660294873
-0.29999999999999993,-1.0,-0.11808545532063944
-0.28,-1.0,-0.02117182586709184
-0.26,-1.0,0.0760756959278156
-0.24,-1.0,0.17212345855252367
-0.21999999999999997,-1.0,0.2654567314142882
-0.19999999999999996,-1.0,0.3546035930454847
-0.17999999999999994,-1.0,0.43815814418443527
-0.16000000000000003,-1.0,0.5148026796466089
-0.14,-1.0,0.583328469322541
-0.12,-1.0,0.6426548205737195
-0.09999999999999998,-1.0,0.6918461214010692
-0.07999999999999996,-1.0,0.730126595605084
-0.05999999999999994,-1.0,0.7568925372399197
-0.040000000000000036,-1.0,0.7717218314167954
-0.020000000000000018,-1.0,0.7743806113079527
0.0,-1.0,0.764826946366229
0.020000000000000018,-1.0,0.7432115035948381
0.040000000000000036,-1.0,0.7098751714387249
0.06000000000000005,-1.0,0.6653436837701505
0.08000000000000007,-1.0,0.6103193287514695
0.10000000000000009,-1.0,0.5456698733312838
0.1200000000000001,-1.0,0.4724148780412814
0.14000000000000012,-1.0,0.391709617917599
0.15999999999999992,-1.0,0.3048268631233725
0.17999999999999994,-1.0,0.21313680660294865
0.19999999999999996,-1.0,0.11808545532063938
0.21999999999999997,-1.0,0.021171825867091834
0.24,-1.0,-0.07607569592781563
0.26,-1.0,-0.1721234585525237
0.28,-1.0,-0.2654567314142881
0.30000000000000004,-1.0,-0.35460359304548467
0.32000000000000006,-1.0,-0.438158144184435
0.3400000000000001,-1.0,-0.5148026796466088
0.3600000000000001,-1.0,-0.583328469322541
0.3800000000000001,-1.0,-0.6426548205737194
0.40000000000000013,-1.0,-0.6918461214010692
0.41999999999999993,-1.0,-0.7301265956050836
0.43999999999999995,-1.0,-0.7568925372399194
0.45999999999999996,-1.0,-0.7717218314167956
0.48,-1.0,-0.7743806113079525
0.5,-1.0,-0.7648269463662289
0.52,-1.0,-0.743211503594838
0.54,-1.0,-0.7098751714387248
0.56,-1.0,-0.6653436837701505
0.5800000000000001,-1.0,-0.6103193287514695
0.6000000000000001,-1.0,-0.5456698733312836
0.6200000000000001,-1.0,-0.47241487804128124
0.6400000000000001,-1.0,-0.39170961791759895
0.6600000000000001,-1.0,-0.3048268631233723
0.6799999999999999,-1.0,-0.2131368066029485
0.7,-1.0,-0.11808545532063934
0.72,-1.0,-0.021171825867091827
0.74,-1.0,0.07607569592781561
0.76,-1.0,0.1721234585525237
0.78,-1.0,0.2654567314142882
0.8,-1.0,0.3546035930454848
0.8200000000000001,-1.0,0.43815814418443516
0.8400000000000001,-1.0,0.5148026796466088
0.8600000000000001,-1.0,0.5833284693225409
0.8800000000000001,-1.0,0.6426548205737195
0.9000000000000001,-1.0,0.691846121401069
0.9199999999999999,-1.0,0.7301265956050841
0.94,-1.0,0.7568925372399196
0.96,-1.0,0.7717218314167957
0.98,-1.0,0.7743806113079523
1.0,-1.0,0.7648269463662286

-1.0,-0.98,0.743211503594838
-0.98,-0.98,0.7186887058238441
-0.96,-0.98,0.6828317578381855
-0.94,-0.98,0.6362061451274981
-0.92,-0.98,0.5795471814570213
-0.9,-0.98,0.5137484125302622
-0.88,-0.98,0.43984752423947565
-0.86,-0.98,0.3590099777392573
-0.84,-0.98,0.27251062942792564
-0.8200000000000001,-0.98,0.18171362570055583
-0.8,-0.98,0.08805088954542996
-0.78,-0.98,-0.007000461736879345
-0.76,-0.98,-0.10194141155572514
-0.74,-0.98,-0.19527468441748955
-0.72,-0.98,-0.28552835885454825
-0.7,-0.98,-0.37127908050609687
-0.6799999999999999,-0.98,-0.4511745092666918
-0.6599999999999999,-0.98,-0.5239546464975634
-0.64,-0.98,-0.5884717059578337
-0.62,-0.98,-0.6437082150791914
-0.6,-0.98,-0.6887930611161022
-0.5800000000000001,-0.98,-0.7230152291141815
-0.56,-0.98,-0.7458350150407669
-0.54,-0.98,-0.756892537239918
-0.52,-0.98,-0.7560134119811096
-0.5,-0.98,-0.743211503594838
-0.48,-0.98,-0.7186887058238441
-0.45999999999999996,-0.98,-0.6828317578381856
-0.43999999999999995,-0.98,-0.6362061451274983
-0.42000000000000004,-0.98,-0.5795471814570214
-0.4,-0.98,-0.5137484125302626
-0.38,-0.98,-0.4398475242394759
-0.36,-0.98,-0.3590099777392575
-0.33999999999999997,-0.98,-0.27251062942792564
-0.31999999999999995,-0.98,-0.18171362570055583
-0.29999999999999993,-0.98,-0.08805088954542989
-0.28,-0.98,0.0070004617368794285
-0.26,-0.98,0.10194141155572521
-0.24,-0.98,0.19527468441748969
-0.21999999999999997,-0.98,0.2855283588545483
-0.19999999999999996,-0.98,0.3712790805060969
-0.17999999999999994,-0.98,0.45117450926669195
-0.16000000000000003,-0.98,0.5239546464975634
-0.14,-0.98,0.5884717059578338
-0.12,-0.98,0.6437082150791916
-0.09999999999999998,-0.98,0.6887930611161022
-0.07999999999999996,-0.98,0.7230152291141815
-0.05999999999999994,-0.98,0.7458350150407668
-0.040000000000000036,-0.98,0.7568925372399179
-0.020000000000000018,-0.98,0.7560134119811097
0.0,-0.98,0.7432115035948381
0.020000000000000018,-0.98,0.7186887058238443
0.040000000000000036,-0.98,0.6828317578381854
0.06000000000000005,-0.98,0.6362061451274982
0.08000000000000007,-0.98,0.5795471814570214
0.10000000000000009,-0.98,0.5137484125302625
0.1200000000000001,-0.98,0.4398475242394758
0.14000000000000012,-0.98,0.35900997773925747
0.15999999999999992,-0.98,0.27251062942792553
0.17999999999999994,-0.98,0.18171362570055577
0.19999999999999996,-0.98,0.08805088954542986
0.21999999999999997,-0.98,-0.007000461736879484
0.24,-0.98,-0.10194141155572523
0.26,-0.98,-0.1952746844174896
0.28,-0.98,-0.28552835885454836
0.30000000000000004,-0.98,-0.3712790805060967
0.32000000000000006,-0.98,-0.45117450926669184
0.3400000000000001,-0.98,-0.5239546464975634
0.3600000000000001,-0.98,-0.5884717059578337
0.3800000000000001,-0.98,-0.6437082150791916
0.40000000000000013,-0.98,-0.6887930611161018
0.41999999999999993,-0.98,-0.7230152291141811
0.43999999999999995,-0.98,-0.745835015040767
0.45999999999999996,-0.98,-0.7568925372399178
0.48,-0.98,-0.7560134119811097
0.5,-0.98,-0.743211503594838
0.52,-0.98,-0.718688705823844
0.54,-0.98,-0.6828317578381854
0.56,-0.98,-0.6362061451274981
0.5800000000000001,-0.98,-0.5795471814570213
0.6000000000000001,-0.98,-0.5137484125302624
0.6200000000000001,-0.98,-0.43984752423947576
0.6400000000000001,-0.98,-0.35900997773925725
0.6600000000000001,-0.98,-0.27251062942792537
0.6799999999999999,-0.98,-0.18171362570055574
0.7,-0.98,-0.08805088954542986
0.72,-0.98,0.007000461736879498
0.74,-0.98,0.10194141155572521
0.76,-0.98,0.1952746844174897
0.78,-0.98,0.2855283588545484
0.8,-0.98,0.3712790805060968
0.8200000000000001,-0.98,0.45117450926669184
0.8400000000000001,-0.98,0.5239546464975633
0.8600000000000001,-0.98,0.5884717059578337
0.8800000000000001,-0.98,0.6437082150791916
0.9000000000000001,-0.98,0.6887930611161023
0.9199999999999999,-0.98,0.7230152291141814
0.94,-0.98,0.745835015040767
0.96,-0.98,0.7568925372399177
0.98,-0.98,0.7560134119811095
1.0,-0.98,0.743211503594838

-1.0,-0.96,0.7098751714387249
-0.98,-0.96,0.6828317578381856
-0.96,-0.96,0.6450196795126173
-0.94,-0.96,0.5970352555250563
-0.92,-0.96,0.5396352289062907
-0.9,-0.96,0.47372483236521357
-0.88,-0.96,0.40034351222823866
-0.86,-0.96,0.32064853574980245
-0.84,-0.96,0.2358967403164408
-0.8200000000000001,-0.96,0.14742471237040694
-0.8,-0.96,0.056627708643037136
-0.78,-0.96,-0.035062347877387004
-0.76,-0.96,-0.1261994502265533
-0.74,-0.96,-0.21534631185774966
-0.72,-0.96,-0.30109703350929823
-0.7,-0.96,-0.38209927507575536
-0.6799999999999999,-0.96,-0.4570755828192248
-0.6599999999999999,-0.96,-0.5248435355779167
-0.64,-0.96,-0.5843343922542141
-0.62,-0.96,-0.6346099465002168
-0.6,-0.96,-0.6748773227923044
-0.5800000000000001,-0.96,-0.7045014805517855
-0.56,-0.96,-0.7230152291141803
-0.54,-0.96,-0.7301265956050813
-0.52,-0.96,-0.7257234295268032
-0.5,-0.96,-0.7098751714387248
-0.48,-0.96,-0.6828317578381855
-0.45999999999999996,-0.96,-0.6450196795126176
-0.43999999999999995,-0.96,-0.5970352555250563
-0.42000000000000004,-0.96,-0.5396352289062912
-0.4,-0.96,-0.4737248323652138
-0.38,-0.96,-0.40034351222823883
-0.36,-0.96,-0.32064853574980245
-0.33999999999999997,-0.96,-0.23589674031644087
-0.31999999999999995,-0.96,-0.14742471237040686
-0.29999999999999993,-0.96,-0.0566277086430371
-0.28,-0.96,0.035062347877387046
-0.26,-0.96,0.12619945022655338
-0.24,-0.96,0.21534631185774972
-0.21999999999999997,-0.96,0.3010970335092983
-0.19999999999999996,-0.96,0.38209927507575553
-0.17999999999999994,-0.96,0.45707558281922483
-0.16000000000000003,-0.96,0.524843535577917
-0.14,-0.96,0.5843343922542142
-0.12,-0.96,0.6346099465002166
-0.09999999999999998,-0.96,0.6748773227923043
-0.07999999999999996,-0.96,0.7045014805517853
-0.05999999999999994,-0.96,0.7230152291141801
-0.040000000000000036,-0.96,0.7301265956050813
-0.020000000000000018,-0.96,0.7257234295268032
0.0,-0.96,0.709875171438725
0.020000000000000018,-0.96,0.6828317578381854
0.040000000000000036,-0.96,0.6450196795126174
0.06000000000000005,-0.96,0.5970352555250563
0.08000000000000007,-0.96,0.539635228906291
0.10000000000000009,-0.96,0.47372483236521373
0.1200000000000001,-0.96,0.40034351222823883
0.14000000000000012,-0.96,0.3206485357498024
0.15999999999999992,-0.96,0.23589674031644078
0.17999999999999994,-0.96,0.14742471237040686
0.19999999999999996,-0.96,0.05662770864303701
0.21999999999999997,-0.96,-0.03506234787738707
0.24,-0.96,-0.12619945022655335
0.26,-0.96,-0.21534631185774974
0.28,-0.96,-0.3010970335092982
0.30000000000000004,-0.96,-0.3820992750757554
0.32000000000000006,-0.96,-0.45707558281922483
0.3400000000000001,-0.96,-0.5248435355779169
0.3600000000000001,-0.96,-0.5843343922542144
0.3800000000000001,-0.96,-0.6346099465002165
0.40000000000000013,-0.96,-0.6748773227923041
0.41999999999999993,-0.96,-0.7045014805517856
0.43999999999999995,-0.96,-0.7230152291141801
0.45999999999999996,-0.96,-0.7301265956050813
0.48,-0.96,-0.7257234295268031
0.5,-0.96,-0.7098751714387248
0.52,-0.96,-0.6828317578381853
0.54,-0.96,-0.6450196795126173
0.56,-0.96,-0.5970352555250562
0.5800000000000001,-0.96,-0.5396352289062909
0.6000000000000001,-0.96,-0.4737248323652137
0.6200000000000001,-0.96,-0.4003435122282386
0.6400000000000001,-0.96,-0.3206485357498021
0.6600000000000001,-0.96,-0.2358967403164408
0.6799999999999999,-0.96,-0.14742471237040683
0.7,-0.96,-0.056627708643036984
0.72,-0.96,0.03506234787738706
0.74,-0.96,0.12619945022655346
0.76,-0.96,0.21534631185774986
0.78,-0.96,0.3010970335092982
0.8,-0.96,0.3820992750757554
0.8200000000000001,-0.96,0.4570755828192247
0.8400000000000001,-0.96,0.5248435355779169
0.8600000000000001,-0.96,0.5843343922542144
0.8800000000000001,-0.96,0.6346099465002168
0.9000000000000001,-0.96,0.6748773227923042
0.9199999999999999,-0.96,0.7045014805517856
0.94,-0.96,0.7230152291141799
0.96,-0.96,0.7301265956050811
0.98,-0.96,0.7257234295268034
1.0,-0.96,0.7098751714387249

-1.0,-0.94,0.6653436837701507
-0.98,-0.94,0.6362061451274982
-0.96,-0.94,0.5970352555250563
-0.94,-0.94,0.5484487632914098
-0.92,-0.94,0.4912129064332485
-0.9,-0.94,0.4262303286042674
-0.88,-0.94,0.35452584387554037
-0.86,-0.94,0.2772302748054221
-0.84,-0.94,0.1955626186922839
-0.8200000000000001,-0.94,0.11081082325892226
-0.8,-0.94,0.024311474947590072
-0.78,-0.94,-0.06257127984663671
-0.76,-0.94,-0.14846724817941143
-0.74,-0.94,-0.2320217993183618
-0.72,-0.94,-0.31191722807895683
-0.7,-0.94,-0.38689353582242614
-0.6799999999999999,-0.94,-0.45576830138698043
-0.6599999999999999,-0.94,-0.517455328575876
-0.64,-0.94,-0.5709817761203002
-0.62,-0.94,-0.6155034999673272
-0.6,-0.94,-0.6503183659359005
-0.5800000000000001,-0.94,-0.6748773227923035
-0.56,-0.94,-0.6887930611161003
-0.54,-0.94,-0.6918461214010656
-0.52,-0.94,-0.6839883550626963
-0.5,-0.94,-0.6653436837701506
-0.48,-0.94,-0.6362061451274983
-0.45999999999999996,-0.94,-0.5970352555250562
-0.43999999999999995,-0.94,-0.5484487632914103
-0.42000000000000004,-0.94,-0.49121290643324883
-0.4,-0.94,-0.4262303286042675
-0.38,-0.94,-0.3545258438755403
-0.36,-0.94,-0.2772302748054222
-0.33999999999999997,-0.94,-0.1955626186922838
-0.31999999999999995,-0.94,-0.11081082325892226
-0.29999999999999993,-0.94,-0.02431147494759006
-0.28,-0.94,0.06257127984663678
-0.26,-0.94,0.1484672481794115
-0.24,-0.94,0.23202179931836187
-0.21999999999999997,-0.94,0.311917228078957
-0.19999999999999996,-0.94,0.38689353582242625
-0.17999999999999994,-0.94,0.45576830138698066
-0.16000000000000003,-0.94,0.5174553285758761
-0.14,-0.94,0.5709817761203
-0.12,-0.94,0.6155034999673271
-0.09999999999999998,-0.94,0.6503183659359004
-0.07999999999999996,-0.94,0.6748773227923034
-0.05999999999999994,-0.94,0.6887930611161004
-0.040000000000000036,-0.94,0.6918461214010656
-0.020000000000000018,-0.94,0.6839883550626964
0.0,-0.94,0.6653436837701503
0.020000000000000018,-0.94,0.6362061451274983
0.040000000000000036,-0.94,0.5970352555250562
0.06000000000000005,-0.94,0.5484487632914101
0.08000000000000007,-0.94,0.4912129064332486
0.10000000000000009,-0.94,0.42623032860426757
0.1200000000000001,-0.94,0.35452584387554026
0.14000000000000012,-0.94,0.2772302748054221
0.15999999999999992,-0.94,0.19556261869228378
0.17999999999999994,-0.94,0.11081082325892218
0.19999999999999996,-0.94,0.024311474947590034
0.21999999999999997,-0.94,-0.06257127984663681
0.24,-0.94,-0.14846724817941154
0.26,-0.94,-0.23202179931836184
0.28,-0.94,-0.3119172280789569
0.30000000000000004,-0.94,-0.38689353582242625
0.32000000000000006,-0.94,-0.45576830138698055
0.3400000000000001,-0.94,-0.5174553285758762
0.3600000000000001,-0.94,-0.5709817761203
0.3800000000000001,-0.94,-0.615503499967327
0.40000000000000013,-0.94,-0.6503183659359005
0.41999999999999993,-0.94,-0.6748773227923034
0.43999999999999995,-0.94,-0.6887930611161004
0.45999999999999996,-0.94,-0.6918461214010656
0.48,-0.94,-0.6839883550626962
0.5,-0.94,-0.6653436837701503
0.52,-0.94,-0.6362061451274981
0.54,-0.94,-0.5970352555250562
0.56,-0.94,-0.54844876329141
0.5800000000000001,-0.94,-0.4912129064332487
0.6000000000000001,-0.94,-0.42623032860426735
0.6200000000000001,-0.94,-0.35452584387554004
0.6400000000000001,-0.94,-0.27723027480542217
0.6600000000000001,-0.94,-0.19556261869228378
0.6799999999999999,-0.94,-0.11081082325892212
0.7,-0.94,-0.02431147494759003
0.72,-0.94,0.06257127984663687
0.74,-0.94,0.14846724817941162
0.76,-0.94,0.23202179931836184
0.78,-0.94,0.3119172280789569
0.8,-0.94,0.3868935358224262
0.8200000000000001,-0.94,0.4557683013869806
0.8400000000000001,-0.94,0.5174553285758761
0.8600000000000001,-0.94,0.5709817761203003
0.8800000000000001,-0.94,0.615503499967327
0.9000000000000001,-0.94,0.6503183659359005
0.9199999999999999,-0.94,0.6748773227923033
0.94,-0.94,0.6887930611161002
0.96,-0.94,0.6918461214010658
0.98,-0.94,0.6839883550626964
1.0,-0.94,0.6653436837701507

-1.0,-0.92,0.6103193287514695
-0.98,-0.92,0.5795471814570214
-0.96,-0.92,0.5396352289062907
-0.94,-0.92,0.4912129064332485
-0.92,-0.92,0.43504386298938663
-0.9,-0.92,0.3720139179435753
-0.88,-0.92,0.3031170911814508
-0.86,-0.92,0.2294399268180219
-0.84,-0.92,0.15214435774790372
-0.8200000000000001,-0.92,0.07244938126946708
-0.8,-0.92,-0.008388165230751518
-0.78,-0.92,-0.08909342535443428
-0.76,-0.92,-0.1683936289384452
-0.74,-0.92,-0.2450381644006186
-0.72,-0.92,-0.31781830163148994
-0.7,-0.92,-0.385586254390182
-0.6799999999999999,-0.92,-0.4472732815790777
-0.6599999999999999,-0.92,-0.501906541929364
-0.64,-0.92,-0.5486244362889892
-0.62,-0.92,-0.5866901955559841
-0.6,-0.92,-0.6155034999673266
-0.5800000000000001,-0.92,-0.6346099465002156
-0.56,-0.92,-0.6437082150791892
-0.54,-0.92,-0.6426548205737151
-0.52,-0.92,-0.6314663756444128
-0.5,-0.92,-0.6103193287514697
-0.48,-0.92,-0.5795471814570213
-0.45999999999999996,-0.92,-0.5396352289062911
-0.43999999999999995,-0.92,-0.49121290643324883
-0.42000000000000004,-0.92,-0.43504386298938685
-0.4,-0.92,-0.37201391794357536
-0.38,-0.92,-0.30311709118145086
-0.36,-0.92,-0.2294399268180218
-0.33999999999999997,-0.92,-0.15214435774790372
-0.31999999999999995,-0.92,-0.07244938126946712
-0.29999999999999993,-0.92,0.008388165230751556
-0.28,-0.92,0.08909342535443437
-0.26,-0.92,0.16839362893844523
-0.24,-0.92,0.24503816440061874
-0.21999999999999997,-0.92,0.3178183016314901
-0.19999999999999996,-0.92,0.38558625439018224
-0.17999999999999994,-0.92,0.4472732815790778
-0.16000000000000003,-0.92,0.5019065419293639
-0.14,-0.92,0.5486244362889892
-0.12,-0.92,0.586690195555984
-0.09999999999999998,-0.92,0.6155034999673266
-0.07999999999999996,-0.92,0.6346099465002155
-0.05999999999999994,-0.92,0.6437082150791893
-0.040000000000000036,-0.92,0.6426548205737154
-0.020000000000000018,-0.92,0.6314663756444125
0.0,-0.92,0.6103193287514697
0.020000000000000018,-0.92,0.5795471814570212
0.040000000000000036,-0.92,0.539635228906291
0.06000000000000005,-0.92,0.49121290643324855
0.08000000000000007,-0.92,0.4350438629893869
0.10000000000000009,-0.92,0.3720139179435752
0.1200000000000001,-0.92,0.3031170911814508
0.14000000000000012,-0.92,0.2294399268180218
0.15999999999999992,-0.92,0.15214435774790366
0.17999999999999994,-0.92,0.07244938126946708
0.19999999999999996,-0.92,-0.008388165230751612
0.21999999999999997,-0.92,-0.08909342535443439
0.24,-0.92,-0.1683936289384452
0.26,-0.92,-0.24503816440061868
0.28,-0.92,-0.3178183016314901
0.30000000000000004,-0.92,-0.3855862543901821
0.32000000000000006,-0.92,-0.4472732815790778
0.3400000000000001,-0.92,-0.5019065419293638
0.3600000000000001,-0.92,-0.5486244362889889
0.3800000000000001,-0.92,-0.5866901955559841
0.40000000000000013,-0.92,-0.6155034999673266
0.41999999999999993,-0.92,-0.6346099465002155
0.43999999999999995,-0.92,-0.6437082150791893
0.45999999999999996,-0.92,-0.642654820573715
0.48,-0.92,-0.6314663756444125
0.5,-0.92,-0.6103193287514695
0.52,-0.92,-0.5795471814570213
0.54,-0.92,-0.5396352289062909
0.56,-0.92,-0.4912129064332487
0.5800000000000001,-0.92,-0.4350438629893867
0.6000000000000001,-0.92,-0.372013917943575
0.6200000000000001,-0.92,-0.3031170911814508
0.6400000000000001,-0.92,-0.22943992681802178
0.6600000000000001,-0.92,-0.15214435774790358
0.6799999999999999,-0.92,-0.07244938126946705
0.7,-0.92,0.008388165230751643
0.72,-0.92,0.08909342535443447
0.74,-0.92,0.16839362893844523
0.76,-0.92,0.24503816440061868
0.78,-0.92,0.31781830163149
0.8,-0.92,0.38558625439018224
0.8200000000000001,-0.92,0.44727328157907775
0.8400000000000001,-0.92,0.501906541929364
0.8600000000000001,-0.92,0.5486244362889889
0.8800000000000001,-0.92,0.5866901955559842
0.9000000000000001,-0.92,0.6155034999673265
0.9199999999999999,-0.92,0.6346099465002154
0.94,-0.92,0.6437082150791895
0.96,-0.92,0.6426548205737155
0.98,-0.92,0.6314663756444129
1.0,-0.92,0.6103193287514695

-1.0,-0.9,0.5456698733312837
-0.98,-0.9,0.5137484125302623
-0.96,-0.9,0.4737248323652135
-0.94,-0.9,0.4262303286042674
-0.92,-0.9,0.3720139179435753
-0.9,-0.9,0.3119306255665701
-0.88,-0.9,0.24692800088605688
-0.86,-0.9,0.1780311741239325
-0.84,-0.9,0.10632668939520515
-0.8200000000000001,-0.9,0.03294536925822998
-0.8,-0.9,-0.04095551903255722
-0.78,-0.9,-0.11421051432255992
-0.76,-0.9,-0.1856643415756415
-0.74,-0.9,-0.2541901312515735
-0.72,-0.9,-0.318707190711844
-0.7,-0.9,-0.37819804738814167
-0.6799999999999999,-0.9,-0.43172449493256565
-0.6599999999999999,-0.9,-0.47844238929219074
-0.64,-0.9,-0.517614961365048
-0.62,-0.9,-0.5486244362889886
-0.6,-0.9,-0.5709817761202994
-0.5800000000000001,-0.9,-0.5843343922542128
-0.56,-0.9,-0.5884717059578306
-0.54,-0.9,-0.5833284693225361
-0.52,-0.9,-0.5689857942624886
-0.5,-0.9,-0.5456698733312836
-0.48,-0.9,-0.5137484125302626
-0.45999999999999996,-0.9,-0.4737248323652138
-0.43999999999999995,-0.9,-0.42623032860426757
-0.42000000000000004,-0.9,-0.37201391794357536
-0.4,-0.9,-0.31193062556657014
-0.38,-0.9,-0.24692800088605682
-0.36,-0.9,-0.1780311741239325
-0.33999999999999997,-0.9,-0.10632668939520518
-0.31999999999999995,-0.9,-0.03294536925822997
-0.29999999999999993,-0.9,0.040955519032557314
-0.28,-0.9,0.11421051432255996
-0.26,-0.9,0.1856643415756416
-0.24,-0.9,0.25419013125157364
-0.21999999999999997,-0.9,0.31870719071184417
-0.19999999999999996,-0.9,0.3781980473881418
-0.17999999999999994,-0.9,0.4317244949325657
-0.16000000000000003,-0.9,0.47844238929219074
-0.14,-0.9,0.517614961365048
-0.12,-0.9,0.5486244362889887
-0.09999999999999998,-0.9,0.5709817761202993
-0.07999999999999996,-0.9,0.5843343922542127
-0.05999999999999994,-0.9,0.5884717059578307
-0.040000000000000036,-0.9,0.583328469322536
-0.020000000000000018,-0.9,0.5689857942624885
0.0,-0.9,0.5456698733312836
0.020000000000000018,-0.9,0.5137484125302624
0.040000000000000036,-0.9,0.47372483236521357
0.06000000000000005,-0.9,0.4262303286042676
0.08000000000000007,-0.9,0.3720139179435752
0.10000000000000009,-0.9,0.31193062556657003
0.1200000000000001,-0.9,0.24692800088605685
0.14000000000000012,-0.9,0.17803117412393243
0.15999999999999992,-0.9,0.10632668939520515
0.17999999999999994,-0.9,0.03294536925822989
0.19999999999999996,-0.9,-0.04095551903255733
0.21999999999999997,-0.9,-0.11421051432255995
0.24,-0.9,-0.18566434157564157
0.26,-0.9,-0.25419013125157364
0.28,-0.9,-0.31870719071184406
0.30000000000000004,-0.9,-0.37819804738814167
0.32000000000000006,-0.9,-0.4317244949325656
0.3400000000000001,-0.9,-0.47844238929219063
0.3600000000000001,-0.9,-0.517614961365048
0.3800000000000001,-0.9,-0.5486244362889886
0.40000000000000013,-0.9,-0.5709817761202994
0.41999999999999993,-0.9,-0.5843343922542128
0.43999999999999995,-0.9,-0.5884717059578305
0.45999999999999996,-0.9,-0.5833284693225361
0.48,-0.9,-0.5689857942624885
0.5,-0.9,-0.5456698733312838
0.52,-0.9,-0.5137484125302624
0.54,-0.9,-0.4737248323652137
0.56,-0.9,-0.4262303286042674
0.5800000000000001,-0.9,-0.372013917943575
0.6000000000000001,-0.9,-0.31193062556657014
0.6200000000000001,-0.9,-0.24692800088605685
0.6400000000000001,-0.9,-0.17803117412393235
0.6600000000000001,-0.9,-0.10632668939520512
0.6799999999999999,-0.9,-0.03294536925822987
0.7,-0.9,0.04095551903255738
0.72,-0.9,0.11421051432255998
0.74,-0.9,0.18566434157564157
0.76,-0.9,0.2541901312515735
0.78,-0.9,0.31870719071184417
0.8,-0.9,0.37819804738814167
0.8200000000000001,-0.9,0.43172449493256565
0.8400000000000001,-0.9,0.4784423892921907
0.8600000000000001,-0.9,0.5176149613650483
0.8800000000000001,-0.9,0.5486244362889886
0.9000000000000001,-0.9,0.5709817761202993
0.9199999999999999,-0.9,0.5843343922542129
0.94,-0.9,0.5884717059578308
0.96,-0.9,0.5833284693225363
0.98,-0.9,0.5689857942624884
1.0,-0.9,0.5456698733312837

-1.0,-0.88,0.47241487804128124
-0.98,-0.88,0.43984752423947565
-0.96,-0.88,0.40034351222823866
-0.94,-0.88,0.35452584387554037
-0.92,-0.88,0.3031170911814508
-0.9,-0.88,0.2469280008860569
-0.88,-0.88,0.18684470850905177
-0.86,-0.88,0.12381476346324016
-0.84,-0.88,0.05883218563425878
-0.8200000000000001,-0.88,-0.0070782109068191525
-0.8,-0.88,-0.07287697983357838
-0.78,-0.88,-0.13752643525376446
-0.76,-0.88,-0.20000701663568843
-0.74,-0.88,-0.259333367886867
-0.72,-0.88,-0.3145698770082252
-0.7,-0.88,-0.3648454312542276
-0.6799999999999999,-0.88,-0.40936715510125465
-0.6599999999999999,-0.88,-0.4474329143682499
-0.64,-0.88,-0.4784423892921905
-0.62,-0.88,-0.5019065419293636
-0.6,-0.88,-0.5174553285758752
-0.5800000000000001,-0.88,-0.5248435355779149
-0.56,-0.88,-0.5239546464975596
-0.54,-0.88,-0.5148026796466041
-0.52,-0.88,-0.49753196700940705
-0.5,-0.88,-0.4724148780412815
-0.48,-0.88,-0.4398475242394759
-0.45999999999999996,-0.88,-0.40034351222823883
-0.43999999999999995,-0.88,-0.3545258438755403
-0.42000000000000004,-0.88,-0.30311709118145086
-0.4,-0.88,-0.24692800088605685
-0.38,-0.88,-0.18684470850905177
-0.36,-0.88,-0.12381476346324023
-0.33999999999999997,-0.88,-0.05883218563425877
-0.31999999999999995,-0.88,0.007078210906819229
-0.29999999999999993,-0.88,0.07287697983357844
-0.28,-0.88,0.13752643525376454
-0.26,-0.88,0.2000070166356885
-0.24,-0.88,0.25933336788686717
-0.21999999999999997,-0.88,0.31456987700822536
-0.19999999999999996,-0.88,0.3648454312542277
-0.17999999999999994,-0.88,0.4093671551012547
-0.16000000000000003,-0.88,0.44743291436824983
-0.14,-0.88,0.4784423892921905
-0.12,-0.88,0.5019065419293636
-0.09999999999999998,-0.88,0.5174553285758751
-0.07999999999999996,-0.88,0.524843535577915
-0.05999999999999994,-0.88,0.5239546464975595
-0.040000000000000036,-0.88,0.514802679646604
-0.020000000000000018,-0.88,0.497531967009407
0.0,-0.88,0.47241487804128135
0.020000000000000018,-0.88,0.43984752423947565
0.040000000000000036,-0.88,0.4003435122282389
0.06000000000000005,-0.88,0.35452584387554026
0.08000000000000007,-0.88,0.3031170911814508
0.10000000000000009,-0.88,0.24692800088605685
0.1200000000000001,-0.88,0.18684470850905177
0.14000000000000012,-0.88,0.12381476346324019
0.15999999999999992,-0.88,0.05883218563425871
0.17999999999999994,-0.88,-0.00707821090681925
0.19999999999999996,-0.88,-0.07287697983357842
0.21999999999999997,-0.88,-0.13752643525376454
0.24,-0.88,-0.20000701663568848
0.26,-0.88,-0.2593333678868671
0.28,-0.88,-0.31456987700822525
0.30000000000000004,-0.88,-0.36484543125422764
0.32000000000000006,-0.88,-0.40936715510125465
0.3400000000000001,-0.88,-0.44743291436824983
0.3600000000000001,-0.88,-0.47844238929219035
0.3800000000000001,-0.88,-0.5019065419293635
0.40000000000000013,-0.88,-0.5174553285758751
0.41999999999999993,-0.88,-0.5248435355779147
0.43999999999999995,-0.88,-0.5239546464975597
0.45999999999999996,-0.88,-0.5148026796466039
0.48,-0.88,-0.49753196700940716
0.5,-0.88,-0.4724148780412813
0.52,-0.88,-0.43984752423947576
0.54,-0.88,-0.4003435122282388
0.56,-0.88,-0.3545258438755401
0.5800000000000001,-0.88,-0.3031170911814509
0.6000000000000001,-0.88,-0.24692800088605685
0.6200000000000001,-0.88,-0.18684470850905166
0.6400000000000001,-0.88,-0.12381476346324019
0.6600000000000001,-0.88,-0.058832185634258696
0.6799999999999999,-0.88,0.007078210906819291
0.7,-0.88,0.07287697983357842
0.72,-0.88,0.1375264352537645
0.74,-0.88,0.20000701663568846
0.76,-0.88,0.25933336788686717
0.78,-0.88,0.3145698770082253
0.8,-0.88,0.3648454312542277
0.8200000000000001,-0.88,0.40936715510125465
0.8400000000000001,-0.88,0.44743291436825
0.8600000000000001,-0.88,0.47844238929219035
0.8800000000000001,-0.88,0.5019065419293635
0.9000000000000001,-0.88,0.5174553285758753
0.9199999999999999,-0.88,0.524843535577915
0.94,-0.88,0.5239546464975599
0.96,-0.88,0.5148026796466039
0.98,-0.88,0.49753196700940716
1.0,-0.88,0.47241487804128124

-1.0,-0.86,0.3917096179175989
-0.98,-0.86,0.35900997773925736
-0.96,-0.86,0.3206485357498024
-0.94,-0.86,0.27723027480542217
-0.92,-0.86,0.22943992681802186
-0.9,-0.86,0.17803117412393246
-0.88,-0.86,0.12381476346324019
-0.86,-0.86,0.06764572001937807
-0.84,-0.86,0.010409863161215897
-0.8200000000000001,-0.86,-0.046990163457549555
-0.8,-0.86,-0.10364912712802637
-0.78,-0.86,-0.15867348214670693
-0.76,-0.86,-0.21119546156499017
-0.74,-0.86,-0.2603867623923401
-0.72,-0.86,-0.3054716084292506
-0.7,-0.86,-0.3457389847213383
-0.6799999999999999,-0.86,-0.380553850689912
-0.6599999999999999,-0.86,-0.4093671551012545
-0.64,-0.86,-0.43172449493256526
-0.62,-0.86,-0.44727328157907714
-0.6,-0.86,-0.45576830138697927
-0.5800000000000001,-0.86,-0.4570755828192221
-0.56,-0.86,-0.45117450926668806
-0.54,-0.86,-0.43815814418443055
-0.52,-0.86,-0.4182317634253967
-0.5,-0.86,-0.39170961791759906
-0.48,-0.86,-0.35900997773925747
-0.45999999999999996,-0.86,-0.3206485357498024
-0.43999999999999995,-0.86,-0.27723027480542217
-0.42000000000000004,-0.86,-0.2294399268180219
-0.4,-0.86,-0.1780311741239325
-0.38,-0.86,-0.12381476346324025
-0.36,-0.86,-0.06764572001937807
-0.33999999999999997,-0.86,-0.010409863161215834
-0.31999999999999995,-0.86,0.04699016345754957
-0.29999999999999993,-0.86,0.10364912712802643
-0.28,-0.86,0.15867348214670704
-0.26,-0.86,0.21119546156499028
-0.24,-0.86,0.26038676239234027
-0.21999999999999997,-0.86,0.3054716084292507
-0.19999999999999996,-0.86,0.34573898472133835
-0.17999999999999994,-0.86,0.38055385068991193
-0.16000000000000003,-0.86,0.40936715510125454
-0.14,-0.86,0.43172449493256543
-0.12,-0.86,0.4472732815790771
-0.09999999999999998,-0.86,0.4557683013869794
-0.07999999999999996,-0.86,0.45707558281922206
-0.05999999999999994,-0.86,0.45117450926668795
-0.040000000000000036,-0.86,0.4381581441844305
-0.020000000000000018,-0.86,0.41823176342539653
0.0,-0.86,0.3917096179175989
0.020000000000000018,-0.86,0.35900997773925747
0.040000000000000036,-0.86,0.3206485357498024
0.06000000000000005,-0.86,0.27723027480542217
0.08000000000000007,-0.86,0.22943992681802186
0.10000000000000009,-0.86,0.1780311741239325
0.1200000000000001,-0.86,0.12381476346324022
0.14000000000000012,-0.86,0.067645720019378
0.15999999999999992,-0.86,0.010409863161215817
0.17999999999999994,-0.86,-0.04699016345754958
0.19999999999999996,-0.86,-0.10364912712802646
0.21999999999999997,-0.86,-0.15867348214670704
0.24,-0.86,-0.21119546156499022
0.26,-0.86,-0.26038676239234015
0.28,-0.86,-0.3054716084292507
0.30000000000000004,-0.86,-0.34573898472133824
0.32000000000000006,-0.86,-0.38055385068991193
0.3400000000000001,-0.86,-0.40936715510125443
0.3600000000000001,-0.86,-0.4317244949325654
0.3800000000000001,-0.86,-0.44727328157907703