TITLE = "Solution" 
VARIABLES = "x", "y", "sol" 
ZONE STRANDID=1, SOLUTIONTIME= 0.35000000000000014, I= 101, J =101, DATAPACKING=POINT 
-1.0,-1.0,0.5335056817456367
-0.98,-1.0,0.5888983243394863
-0.96,-1.0,0.6350036885676952
-0.94,-1.0,0.6710946652943749
-0.92,-1.0,0.6966020782568411
-0.9,-1.0,0.7111236603152857
-0.88,-1.0,0.7144303974458744
-0.86,-1.0,0.7064701404287094
-0.84,-1.0,0.6873684272721785
-0.8200000000000001,-1.0,0.6574265034035699
-0.8,-1.0,0.6171165708487302
-0.78,-1.0,0.5670743413240356
-0.76,-1.0,0.5080890106828695
-0.74,-1.0,0.4410908128255716
-0.72,-1.0,0.3671363493551352
-0.7,-1.0,0.2873919263387435
-0.6799999999999999,-1.0,0.20311516096437474
-0.6599999999999999,-1.0,0.11563514816648181
-0.64,-1.0,0.026331500004914264
-0.62,-1.0,-0.06338741164140636
-0.6,-1.0,-0.1521066659403378
-0.5800000000000001,-1.0,-0.2384271072532722
-0.56,-1.0,-0.3209874106553725
-0.54,-1.0,-0.39848555084285275
-0.52,-1.0,-0.46969933584981177
-0.5,-1.0,-0.5335056817456368
-0.48,-1.0,-0.5888983243394862
-0.45999999999999996,-1.0,-0.6350036885676952
-0.43999999999999995,-1.0,-0.6710946652943749
-0.42000000000000004,-1.0,-0.6966020782568411
-0.4,-1.0,-0.7111236603152856
-0.38,-1.0,-0.7144303974458746
-0.36,-1.0,-0.7064701404287097
-0.33999999999999997,-1.0,-0.6873684272721786
-0.31999999999999995,-1.0,-0.65742650340357
-0.29999999999999993,-1.0,-0.6171165708487301
-0.28,-1.0,-0.5670743413240356
-0.26,-1.0,-0.5080890106828696
-0.24,-1.0,-0.4410908128255716
-0.21999999999999997,-1.0,-0.36713634935513506
-0.19999999999999996,-1.0,-0.28739192633874344
-0.17999999999999994,-1.0,-0.2031151609643746
-0.16000000000000003,-1.0,-0.11563514816648171
-0.14,-1.0,-0.02633150000491427
-0.12,-1.0,0.06338741164140636
-0.09999999999999998,-1.0,0.15210666594033778
-0.07999999999999996,-1.0,0.23842710725327218
-0.05999999999999994,-1.0,0.32098741065537245
-0.040000000000000036,-1.0,0.39848555084285253
-0.020000000000000018,-1.0,0.46969933584981177
0.0,-1.0,0.5335056817456366
0.020000000000000018,-1.0,0.5888983243394862
0.040000000000000036,-1.0,0.635003688567695
0.06000000000000005,-1.0,0.6710946652943747
0.08000000000000007,-1.0,0.6966020782568407
0.10000000000000009,-1.0,0.7111236603152856
0.1200000000000001,-1.0,0.7144303974458744
0.14000000000000012,-1.0,0.7064701404287095
0.15999999999999992,-1.0,0.6873684272721785
0.17999999999999994,-1.0,0.6574265034035697
0.19999999999999996,-1.0,0.6171165708487301
0.21999999999999997,-1.0,0.5670743413240357
0.24,-1.0,0.5080890106828696
0.26,-1.0,0.4410908128255715
0.28,-1.0,0.36713634935513506
0.30000000000000004,-1.0,0.2873919263387433
0.32000000000000006,-1.0,0.20311516096437446
0.3400000000000001,-1.0,0.11563514816648165
0.3600000000000001,-1.0,0.026331500004914275
0.3800000000000001,-1.0,-0.06338741164140635
0.40000000000000013,-1.0,-0.15210666594033778
0.41999999999999993,-1.0,-0.2384271072532722
0.43999999999999995,-1.0,-0.32098741065537245
0.45999999999999996,-1.0,-0.39848555084285275
0.48,-1.0,-0.46969933584981177
0.5,-1.0,-0.5335056817456366
0.52,-1.0,-0.5888983243394864
0.54,-1.0,-0.6350036885676952
0.56,-1.0,-0.6710946652943746
0.5800000000000001,-1.0,-0.6966020782568408
0.6000000000000001,-1.0,-0.7111236603152856
0.6200000000000001,-1.0,-0.7144303974458743
0.6400000000000001,-1.0,-0.7064701404287096
0.6600000000000001,-1.0,-0.6873684272721785
0.6799999999999999,-1.0,-0.6574265034035698
0.7,-1.0,-0.61711657084873
0.72,-1.0,-0.5670743413240354
0.74,-1.0,-0.5080890106828694
0.76,-1.0,-0.4410908128255715
0.78,-1.0,-0.36713634935513506
0.8,-1.0,-0.2873919263387434
0.8200000000000001,-1.0,-0.20311516096437468
0.8400000000000001,-1.0,-0.11563514816648185
0.8600000000000001,-1.0,-0.026331500004914358
0.8800000000000001,-1.0,0.06338741164140627
0.9000000000000001,-1.0,0.15210666594033767
0.9199999999999999,-1.0,0.23842710725327218
0.94,-1.0,0.3209874106553724
0.96,-1.0,0.3984855508428527
0.98,-1.0,0.46969933584981177
1.0,-1.0,0.5335056817456367

-1.0,-0.98,0.5888983243394863
-0.98,-0.98,0.6469105820476614
-0.96,-0.98,0.6947206734312948
-0.94,-0.98,0.7315746047889025
-0.92,-0.98,0.7568911676075033
-0.9,-0.98,0.7702711045680665
-0.88,-0.98,0.7715034060719368
-0.86,-0.98,0.7605686379882579
-0.84,-0.98,0.7376392481418226
-0.8200000000000001,-0.98,0.7030768467078626
-0.8,-0.98,0.6574265034035697
-0.78,-0.98,0.6014081514130455
-0.76,-0.98,0.5359052336109222
-0.74,-0.98,0.46195077014048586
-0.72,-0.98,0.3807110670689196
-0.7,-0.98,0.29346732304390893
-0.6799999999999999,-0.98,0.20159542402561437
-0.6599999999999999,-0.98,0.10654424474316689
-0.64,-0.98,0.009812799074673006
-0.62,-0.98,-0.08707340029711057
-0.6,-0.98,-0.18258640013108063
-0.5800000000000001,-0.98,-0.27521990336315505
-0.56,-0.98,-0.36351302431079147
-0.54,-0.98,-0.44607332771289177
-0.52,-0.98,-0.5215987882656706
-0.5,-0.98,-0.5888983243394863
-0.48,-0.98,-0.6469105820476614
-0.45999999999999996,-0.98,-0.694720673431295
-0.43999999999999995,-0.98,-0.7315746047889026
-0.42000000000000004,-0.98,-0.7568911676075033
-0.4,-0.98,-0.7702711045680665
-0.38,-0.98,-0.7715034060719371
-0.36,-0.98,-0.760568637988258
-0.33999999999999997,-0.98,-0.7376392481418228
-0.31999999999999995,-0.98,-0.7030768467078626
-0.29999999999999993,-0.98,-0.6574265034035698
-0.28,-0.98,-0.6014081514130458
-0.26,-0.98,-0.5359052336109222
-0.24,-0.98,-0.4619507701404858
-0.21999999999999997,-0.98,-0.38071106706891955
-0.19999999999999996,-0.98,-0.2934673230439088
-0.17999999999999994,-0.98,-0.20159542402561417
-0.16000000000000003,-0.98,-0.10654424474316689
-0.14,-0.98,-0.009812799074672989
-0.12,-0.98,0.08707340029711055
-0.09999999999999998,-0.98,0.1825864001310806
-0.07999999999999996,-0.98,0.27521990336315505
-0.05999999999999994,-0.98,0.36351302431079124
-0.040000000000000036,-0.98,0.4460733277128917
-0.020000000000000018,-0.98,0.5215987882656702
0.0,-0.98,0.5888983243394862
0.020000000000000018,-0.98,0.6469105820476613
0.040000000000000036,-0.98,0.6947206734312948
0.06000000000000005,-0.98,0.7315746047889022
0.08000000000000007,-0.98,0.7568911676075033
0.10000000000000009,-0.98,0.7702711045680665
0.1200000000000001,-0.98,0.771503406071937
0.14000000000000012,-0.98,0.760568637988258
0.15999999999999992,-0.98,0.7376392481418224
0.17999999999999994,-0.98,0.7030768467078626
0.19999999999999996,-0.98,0.6574265034035698
0.21999999999999997,-0.98,0.6014081514130456
0.24,-0.98,0.535905233610922
0.26,-0.98,0.46195077014048574
0.28,-0.98,0.3807110670689194
0.30000000000000004,-0.98,0.2934673230439087
0.32000000000000006,-0.98,0.20159542402561412
0.3400000000000001,-0.98,0.10654424474316684
0.3600000000000001,-0.98,0.009812799074672965
0.3800000000000001,-0.98,-0.08707340029711055
0.40000000000000013,-0.98,-0.18258640013108063
0.41999999999999993,-0.98,-0.275219903363155
0.43999999999999995,-0.98,-0.3635130243107914
0.45999999999999996,-0.98,-0.44607332771289177
0.48,-0.98,-0.5215987882656703
0.5,-0.98,-0.5888983243394864
0.52,-0.98,-0.6469105820476615
0.54,-0.98,-0.6947206734312946
0.56,-0.98,-0.7315746047889021
0.5800000000000001,-0.98,-0.7568911676075033
0.6000000000000001,-0.98,-0.7702711045680662
0.6200000000000001,-0.98,-0.771503406071937
0.6400000000000001,-0.98,-0.760568637988258
0.6600000000000001,-0.98,-0.7376392481418225
0.6799999999999999,-0.98,-0.7030768467078624
0.7,-0.98,-0.6574265034035696
0.72,-0.98,-0.6014081514130454
0.74,-0.98,-0.5359052336109221
0.76,-0.98,-0.46195077014048574
0.78,-0.98,-0.3807110670689195
0.8,-0.98,-0.2934673230439089
0.8200000000000001,-0.98,-0.20159542402561434
0.8400000000000001,-0.98,-0.10654424474316694
0.8600000000000001,-0.98,-0.00981279907467309
0.8800000000000001,-0.98,0.08707340029711044
0.9000000000000001,-0.98,0.1825864001310806
0.9199999999999999,-0.98,0.275219903363155
0.94,-0.98,0.3635130243107913
0.96,-0.98,0.44607332771289177
0.98,-0.98,0.5215987882656704
1.0,-0.98,0.5888983243394863

-1.0,-0.96,0.6350036885676952
-0.98,-0.96,0.6947206734312948
-0.96,-0.96,0.7434814982688687
-0.94,-0.96,0.7805171757444234
-0.92,-0.96,0.8052436311001282
-0.9,-0.96,0.8172709133641546
-0.88,-0.96,0.8164093451104496
-0.86,-0.96,0.8026725137850499
-0.84,-0.96,0.776277057423942
-0.8200000000000001,-0.96,0.7376392481418222
-0.8,-0.96,0.6873684272721781
-0.78,-0.96,0.6262573956904564
-0.76,-0.96,0.5552699108706619
-0.74,-0.96,0.47552548785427023
-0.72,-0.96,0.38828174382925956
-0.7,-0.96,0.2949145647557905
-0.6799999999999999,-0.96,0.19689640682270113
-0.6599999999999999,-0.96,0.09577307493380559
-0.64,-0.96,-0.006860655558857875
-0.62,-0.96,-0.10938618941500118
-0.6,-0.96,-0.21018663771992777
-0.5800000000000001,-0.96,-0.3076723171885999
-0.56,-0.96,-0.40030582042067436
-0.54,-0.96,-0.486626261733609
-0.52,-0.96,-0.5652723162025663
-0.5,-0.96,-0.6350036885676952
-0.48,-0.96,-0.6947206734312948
-0.45999999999999996,-0.96,-0.7434814982688688
-0.43999999999999995,-0.96,-0.7805171757444234
-0.42000000000000004,-0.96,-0.8052436311001281
-0.4,-0.96,-0.8172709133641549
-0.38,-0.96,-0.8164093451104497
-0.36,-0.96,-0.80267251378505
-0.33999999999999997,-0.96,-0.7762770574239418
-0.31999999999999995,-0.96,-0.7376392481418222
-0.29999999999999993,-0.96,-0.6873684272721783
-0.28,-0.96,-0.6262573956904564
-0.26,-0.96,-0.5552699108706619
-0.24,-0.96,-0.4755254878542702
-0.21999999999999997,-0.96,-0.3882817438292594
-0.19999999999999996,-0.96,-0.2949145647557902
-0.17999999999999994,-0.96,-0.19689640682270104
-0.16000000000000003,-0.96,-0.0957730749338055
-0.14,-0.96,0.006860655558857899
-0.12,-0.96,0.10938618941500121
-0.09999999999999998,-0.96,0.21018663771992774
-0.07999999999999996,-0.96,0.3076723171885997
-0.05999999999999994,-0.96,0.4003058204206742
-0.040000000000000036,-0.96,0.4866262617336087
-0.020000000000000018,-0.96,0.5652723162025661
0.0,-0.96,0.6350036885676952
0.020000000000000018,-0.96,0.6947206734312948
0.040000000000000036,-0.96,0.7434814982688686
0.06000000000000005,-0.96,0.7805171757444235
0.08000000000000007,-0.96,0.8052436311001281
0.10000000000000009,-0.96,0.8172709133641546
0.1200000000000001,-0.96,0.8164093451104498
0.14000000000000012,-0.96,0.8026725137850497
0.15999999999999992,-0.96,0.776277057423942
0.17999999999999994,-0.96,0.7376392481418222
0.19999999999999996,-0.96,0.6873684272721781
0.21999999999999997,-0.96,0.6262573956904561
0.24,-0.96,0.5552699108706619
0.26,-0.96,0.47552548785427
0.28,-0.96,0.38828174382925934
0.30000000000000004,-0.96,0.2949145647557901
0.32000000000000006,-0.96,0.19689640682270096
0.3400000000000001,-0.96,0.09577307493380545
0.3600000000000001,-0.96,-0.006860655558857913
0.3800000000000001,-0.96,-0.10938618941500118
0.40000000000000013,-0.96,-0.21018663771992774
0.41999999999999993,-0.96,-0.30767231718859983
0.43999999999999995,-0.96,-0.4003058204206743
0.45999999999999996,-0.96,-0.4866262617336088
0.48,-0.96,-0.5652723162025662
0.5,-0.96,-0.6350036885676953
0.52,-0.96,-0.6947206734312948
0.54,-0.96,-0.7434814982688684
0.56,-0.96,-0.7805171757444234
0.5800000000000001,-0.96,-0.8052436311001278
0.6000000000000001,-0.96,-0.8172709133641547
0.6200000000000001,-0.96,-0.8164093451104497
0.6400000000000001,-0.96,-0.8026725137850498
0.6600000000000001,-0.96,-0.7762770574239418
0.6799999999999999,-0.96,-0.7376392481418221
0.7,-0.96,-0.687368427272178
0.72,-0.96,-0.6262573956904561
0.74,-0.96,-0.5552699108706618
0.76,-0.96,-0.47552548785427007
0.78,-0.96,-0.38828174382925945
0.8,-0.96,-0.29491456475579036
0.8200000000000001,-0.96,-0.19689640682270107
0.8400000000000001,-0.96,-0.0957730749338056
0.8600000000000001,-0.96,0.0068606555588577745
0.8800000000000001,-0.96,0.10938618941500111
0.9000000000000001,-0.96,0.21018663771992765
0.9199999999999999,-0.96,0.30767231718859966
0.94,-0.96,0.40030582042067425
0.96,-0.96,0.48662626173360873
0.98,-0.96,0.5652723162025661
1.0,-0.96,0.6350036885676952

-1.0,-0.94,0.6710946652943748
-0.98,-0.94,0.7315746047889025
-0.96,-0.94,0.7805171757444234
-0.94,-0.94,0.8171505245800945
-0.92,-0.94,0.8408969215010748
-0.9,-0.94,0.8513818716425113
-0.88,-0.94,0.8484400210772672
-0.86,-0.94,0.8321177645461335
-0.84,-0.94,0.8026725137850493
-0.8200000000000001,-0.94,0.7605686379882572
-0.8,-0.94,0.7064701404287087
-0.78,-0.94,0.6412301867297941
-0.76,-0.94,0.5658776499338041
-0.74,-0.94,0.48160088455943545
-0.72,-0.94,0.38972898554114105
-0.7,-0.94,0.2917108276080517
-0.6799999999999999,-0.94,0.18909221566398174
-0.6599999999999999,-0.94,0.08349150652067637
-0.64,-0.94,-0.023425913555868545
-0.62,-0.94,-0.12997389298167503
-0.6,-0.94,-0.23447210647252043
-0.5800000000000001,-0.94,-0.335272554777447
-0.56,-0.94,-0.43078555461141727
-0.54,-0.94,-0.5195048089103487
-0.52,-0.94,-0.6000311620356338
-0.5,-0.94,-0.6710946652943748
-0.48,-0.94,-0.7315746047889026
-0.45999999999999996,-0.94,-0.7805171757444234
-0.43999999999999995,-0.94,-0.8171505245800943
-0.42000000000000004,-0.94,-0.840896921501075
-0.4,-0.94,-0.8513818716425113
-0.38,-0.94,-0.8484400210772675
-0.36,-0.94,-0.8321177645461333
-0.33999999999999997,-0.94,-0.8026725137850493
-0.31999999999999995,-0.94,-0.7605686379882575
-0.29999999999999993,-0.94,-0.7064701404287088
-0.28,-0.94,-0.6412301867297943
-0.26,-0.94,-0.5658776499338042
-0.24,-0.94,-0.4816008845594353
-0.21999999999999997,-0.94,-0.38972898554114077
-0.19999999999999996,-0.94,-0.29171082760805167
-0.17999999999999994,-0.94,-0.18909221566398163
-0.16000000000000003,-0.94,-0.08349150652067631
-0.14,-0.94,0.0234259135558686
-0.12,-0.94,0.12997389298167503
-0.09999999999999998,-0.94,0.23447210647252031
-0.07999999999999996,-0.94,0.33527255477744694
-0.05999999999999994,-0.94,0.43078555461141704
-0.040000000000000036,-0.94,0.5195048089103486
-0.020000000000000018,-0.94,0.6000311620356337
0.0,-0.94,0.6710946652943748
0.020000000000000018,-0.94,0.7315746047889023
0.040000000000000036,-0.94,0.7805171757444233
0.06000000000000005,-0.94,0.8171505245800944
0.08000000000000007,-0.94,0.8408969215010749
0.10000000000000009,-0.94,0.8513818716425116
0.1200000000000001,-0.94,0.8484400210772671
0.14000000000000012,-0.94,0.8321177645461334
0.15999999999999992,-0.94,0.8026725137850492
0.17999999999999994,-0.94,0.7605686379882572
0.19999999999999996,-0.94,0.7064701404287087
0.21999999999999997,-0.94,0.641230186729794
0.24,-0.94,0.565877649933804
0.26,-0.94,0.4816008845594353
0.28,-0.94,0.3897289855411406
0.30000000000000004,-0.94,0.29171082760805156
0.32000000000000006,-0.94,0.1890922156639815
0.3400000000000001,-0.94,0.08349150652067627
0.3600000000000001,-0.94,-0.023425913555868615
0.3800000000000001,-0.94,-0.12997389298167505
0.40000000000000013,-0.94,-0.23447210647252034
0.41999999999999993,-0.94,-0.33527255477744705
0.43999999999999995,-0.94,-0.43078555461141715
0.45999999999999996,-0.94,-0.5195048089103486
0.48,-0.94,-0.6000311620356338
0.5,-0.94,-0.6710946652943749
0.52,-0.94,-0.7315746047889023
0.54,-0.94,-0.7805171757444233
0.56,-0.94,-0.8171505245800942
0.5800000000000001,-0.94,-0.8408969215010749
0.6000000000000001,-0.94,-0.8513818716425113
0.6200000000000001,-0.94,-0.8484400210772672
0.6400000000000001,-0.94,-0.8321177645461333
0.6600000000000001,-0.94,-0.8026725137850492
0.6799999999999999,-0.94,-0.7605686379882571
0.7,-0.94,-0.7064701404287085
0.72,-0.94,-0.6412301867297939
0.74,-0.94,-0.565877649933804
0.76,-0.94,-0.4816008845594354
0.78,-0.94,-0.3897289855411409
0.8,-0.94,-0.2917108276080516
0.8200000000000001,-0.94,-0.1890922156639817
0.8400000000000001,-0.94,-0.08349150652067643
0.8600000000000001,-0.94,0.023425913555868476
0.8800000000000001,-0.94,0.12997389298167494
0.9000000000000001,-0.94,0.23447210647252018
0.9199999999999999,-0.94,0.33527255477744694
0.94,-0.94,0.43078555461141704
0.96,-0.94,0.5195048089103484
0.98,-0.94,0.6000311620356337
1.0,-0.94,0.6710946652943748

-1.0,-0.92,0.6966020782568411
-0.98,-0.92,0.7568911676075033
-0.96,-0.92,0.8052436311001282
-0.94,-0.92,0.8408969215010746
-0.92,-0.92,0.8632887651224778
-0.9,-0.92,0.8720660292141875
-0.88,-0.92,0.8670902910781947
-0.86,-0.92,0.8484400210772665
-0.84,-0.92,0.8164093451104485
-0.8200000000000001,-0.92,0.7715034060719356
-0.8,-0.92,0.7144303974458731
-0.78,-0.92,0.6460903946720563
-0.76,-0.92,0.5675611604185675
-0.74,-0.92,0.4800811476206749
-0.72,-0.92,0.38502996833822767
-0.7,-0.92,0.28390663644933234
-0.6799999999999999,-0.92,0.1783059273060271
-0.6599999999999999,-0.92,0.0698932271743077
-0.64,-0.92,-0.03962173090214071
-0.62,-0.92,-0.14851183061338774
-0.6,-0.92,-0.25505981003919426
-0.5800000000000001,-0.92,-0.35758534389533775
-0.56,-0.92,-0.4544715432671213
-0.54,-0.92,-0.544190454913442
-0.52,-0.92,-0.6253271580021572
-0.5,-0.92,-0.696602078256841
-0.48,-0.92,-0.7568911676075034
-0.45999999999999996,-0.92,-0.8052436311001281
-0.43999999999999995,-0.92,-0.8408969215010749
-0.42000000000000004,-0.92,-0.8632887651224778
-0.4,-0.92,-0.8720660292141875
-0.38,-0.92,-0.8670902910781946
-0.36,-0.92,-0.8484400210772665
-0.33999999999999997,-0.92,-0.8164093451104486
-0.31999999999999995,-0.92,-0.7715034060719356
-0.29999999999999993,-0.92,-0.7144303974458732
-0.28,-0.92,-0.6460903946720563
-0.26,-0.92,-0.5675611604185674
-0.24,-0.92,-0.4800811476206747
-0.21999999999999997,-0.92,-0.3850299683382276
-0.19999999999999996,-0.92,-0.28390663644933223
-0.17999999999999994,-0.92,-0.17830592730602698
-0.16000000000000003,-0.92,-0.06989322717430761
-0.14,-0.92,0.03962173090214076
-0.12,-0.92,0.1485118306133877
-0.09999999999999998,-0.92,0.25505981003919415
-0.07999999999999996,-0.92,0.3575853438953376
-0.05999999999999994,-0.92,0.45447154326712114
-0.040000000000000036,-0.92,0.5441904549134421
-0.020000000000000018,-0.92,0.6253271580021572
0.0,-0.92,0.6966020782568411
0.020000000000000018,-0.92,0.7568911676075032
0.040000000000000036,-0.92,0.8052436311001282
0.06000000000000005,-0.92,0.8408969215010749
0.08000000000000007,-0.92,0.8632887651224778
0.10000000000000009,-0.92,0.8720660292141873
0.1200000000000001,-0.92,0.8670902910781946
0.14000000000000012,-0.92,0.8484400210772665
0.15999999999999992,-0.92,0.8164093451104486
0.17999999999999994,-0.92,0.7715034060719355
0.19999999999999996,-0.92,0.714430397445873
0.21999999999999997,-0.92,0.6460903946720562
0.24,-0.92,0.5675611604185674
0.26,-0.92,0.48008114762067455
0.28,-0.92,0.38502996833822756
0.30000000000000004,-0.92,0.28390663644933206
0.32000000000000006,-0.92,0.17830592730602696
0.3400000000000001,-0.92,0.06989322717430756
0.3600000000000001,-0.92,-0.03962173090214079
0.3800000000000001,-0.92,-0.14851183061338769
0.40000000000000013,-0.92,-0.25505981003919426
0.41999999999999993,-0.92,-0.3575853438953377
0.43999999999999995,-0.92,-0.4544715432671212
0.45999999999999996,-0.92,-0.5441904549134421
0.48,-0.92,-0.6253271580021573
0.5,-0.92,-0.6966020782568408
0.52,-0.92,-0.7568911676075032
0.54,-0.92,-0.805243631100128
0.56,-0.92,-0.8408969215010749
0.5800000000000001,-0.92,-0.8632887651224778
0.6000000000000001,-0.92,-0.8720660292141874
0.6200000000000001,-0.92,-0.8670902910781945
0.6400000000000001,-0.92,-0.8484400210772666
0.6600000000000001,-0.92,-0.8164093451104485
0.6799999999999999,-0.92,-0.7715034060719355
0.7,-0.92,-0.7144303974458729
0.72,-0.92,-0.6460903946720561
0.74,-0.92,-0.5675611604185675
0.76,-0.92,-0.4800811476206749
0.78,-0.92,-0.38502996833822756
0.8,-0.92,-0.28390663644933223
0.8200000000000001,-0.92,-0.17830592730602707
0.8400000000000001,-0.92,-0.06989322717430772
0.8600000000000001,-0.92,0.03962173090214066
0.8800000000000001,-0.92,0.14851183061338752
0.9000000000000001,-0.92,0.25505981003919415
0.9199999999999999,-0.92,0.3575853438953375
0.94,-0.92,0.4544715432671211
0.96,-0.92,0.544190454913442
0.98,-0.92,0.6253271580021573
1.0,-0.92,0.6966020782568411

-1.0,-0.9,0.7111236603152857
-0.98,-0.9,0.7702711045680666
-0.96,-0.9,0.8172709133641545
-0.94,-0.9,0.8513818716425114
-0.92,-0.9,0.8720660292141876
-0.9,-0.9,0.8789971845581607
-0.88,-0.9,0.8720660292141862
-0.86,-0.9,0.8513818716425094
-0.84,-0.9,0.8172709133641526
-0.8200000000000001,-0.9,0.7702711045680642
-0.8,-0.9,0.7111236603152832
-0.78,-0.9,0.6407613711346465
-0.76,-0.9,0.5602938923589271
-0.74,-0.9,0.47099024419735996
-0.72,-0.9,0.3742587985288664
-0.7,-0.9,0.2716250680362032
-0.6799999999999999,-0.9,0.16470764795965842
-0.6599999999999999,-0.9,0.05519268988321008
-0.64,-0.9,-0.05519268988321143
-0.62,-0.9,-0.16470764795965992
-0.6,-0.9,-0.271625068036205
-0.5800000000000001,-0.9,-0.37425879852886845
-0.56,-0.9,-0.47099024419736235
-0.54,-0.9,-0.5602938923589299
-0.52,-0.9,-0.6407613711346491
-0.5,-0.9,-0.7111236603152857
-0.48,-0.9,-0.7702711045680666
-0.45999999999999996,-0.9,-0.8172709133641547
-0.43999999999999995,-0.9,-0.8513818716425113
-0.42000000000000004,-0.9,-0.8720660292141875
-0.4,-0.9,-0.8789971845581608
-0.38,-0.9,-0.8720660292141861
-0.36,-0.9,-0.8513818716425094
-0.33999999999999997,-0.9,-0.8172709133641525
-0.31999999999999995,-0.9,-0.7702711045680642
-0.29999999999999993,-0.9,-0.7111236603152832
-0.28,-0.9,-0.6407613711346465
-0.26,-0.9,-0.560293892358927
-0.24,-0.9,-0.47099024419735996
-0.21999999999999997,-0.9,-0.37425879852886623
-0.19999999999999996,-0.9,-0.27162506803620307
-0.17999999999999994,-0.9,-0.1647076479596583
-0.16000000000000003,-0.9,-0.05519268988321001
-0.14,-0.9,0.05519268988321146
-0.12,-0.9,0.16470764795965986
-0.09999999999999998,-0.9,0.2716250680362049
-0.07999999999999996,-0.9,0.3742587985288684
-0.05999999999999994,-0.9,0.4709902441973624
-0.040000000000000036,-0.9,0.5602938923589298
-0.020000000000000018,-0.9,0.6407613711346493
0.0,-0.9,0.7111236603152856
0.020000000000000018,-0.9,0.7702711045680667
0.040000000000000036,-0.9,0.8172709133641547
0.06000000000000005,-0.9,0.8513818716425113
0.08000000000000007,-0.9,0.8720660292141873
0.10000000000000009,-0.9,0.8789971845581608
0.1200000000000001,-0.9,0.8720660292141861
0.14000000000000012,-0.9,0.8513818716425096
0.15999999999999992,-0.9,0.8172709133641524
0.17999999999999994,-0.9,0.7702711045680641
0.19999999999999996,-0.9,0.711123660315283
0.21999999999999997,-0.9,0.6407613711346464
0.24,-0.9,0.5602938923589268
0.26,-0.9,0.4709902441973598
0.28,-0.9,0.3742587985288661
0.30000000000000004,-0.9,0.271625068036203
0.32000000000000006,-0.9,0.16470764795965823
0.3400000000000001,-0.9,0.055192689883209925
0.3600000000000001,-0.9,-0.05519268988321146
0.3800000000000001,-0.9,-0.1647076479596599
0.40000000000000013,-0.9,-0.27162506803620495
0.41999999999999993,-0.9,-0.37425879852886845
0.43999999999999995,-0.9,-0.4709902441973624
0.45999999999999996,-0.9,-0.56029389235893
0.48,-0.9,-0.640761371134649
0.5,-0.9,-0.7111236603152856
0.52,-0.9,-0.7702711045680665
0.54,-0.9,-0.8172709133641547
0.56,-0.9,-0.8513818716425114
0.5800000000000001,-0.9,-0.8720660292141874
0.6000000000000001,-0.9,-0.8789971845581607
0.6200000000000001,-0.9,-0.8720660292141862
0.6400000000000001,-0.9,-0.8513818716425094
0.6600000000000001,-0.9,-0.8172709133641525
0.6799999999999999,-0.9,-0.770271104568064
0.7,-0.9,-0.7111236603152828
0.72,-0.9,-0.6407613711346464
0.74,-0.9,-0.5602938923589271
0.76,-0.9,-0.4709902441973599
0.78,-0.9,-0.37425879852886623
0.8,-0.9,-0.27162506803620307
0.8200000000000001,-0.9,-0.16470764795965837
0.8400000000000001,-0.9,-0.05519268988321008
0.8600000000000001,-0.9,0.055192689883211285
0.8800000000000001,-0.9,0.1647076479596598
0.9000000000000001,-0.9,0.2716250680362048
0.9199999999999999,-0.9,0.3742587985288683
0.94,-0.9,0.4709902441973623
0.96,-0.9,0.5602938923589298
0.98,-0.9,0.6407613711346493
1.0,-0.9,0.7111236603152857

-1.0,-0.88,0.7144303974458747
-0.98,-0.88,0.7715034060719368
-0.96,-0.88,0.8164093451104498
-0.94,-0.88,0.8484400210772676
-0.92,-0.88,0.8670902910781947
-0.9,-0.88,0.8720660292141862
-0.88,-0.88,0.8632887651224755
-0.86,-0.88,0.8408969215010723
-0.84,-0.88,0.8052436311001252
-0.8200000000000001,-0.88,0.7568911676075002
-0.8,-0.88,0.6966020782568377
-0.78,-0.88,0.625327158002154
-0.76,-0.88,0.544190454913439
-0.74,-0.88,0.45447154326711875
-0.72,-0.88,0.35758534389533553
-0.7,-0.88,0.2550598100391926
-0.6799999999999999,-0.88,0.1485118306133863
-0.6599999999999999,-0.88,0.039621730902139364
-0.64,-0.88,-0.06989322717430907
-0.62,-0.88,-0.17830592730602865
-0.6,-0.88,-0.28390663644933406
-0.5800000000000001,-0.88,-0.3850299683382296
-0.56,-0.88,-0.48008114762067683
-0.54,-0.88,-0.5675611604185694
-0.52,-0.88,-0.646090394672058
-0.5,-0.88,-0.7144303974458747
-0.48,-0.88,-0.771503406071937
-0.45999999999999996,-0.88,-0.8164093451104497
-0.43999999999999995,-0.88,-0.8484400210772675
-0.42000000000000004,-0.88,-0.8670902910781947
-0.4,-0.88,-0.8720660292141861
-0.38,-0.88,-0.8632887651224755
-0.36,-0.88,-0.8408969215010723
-0.33999999999999997,-0.88,-0.8052436311001253
-0.31999999999999995,-0.88,-0.7568911676075001
-0.29999999999999993,-0.88,-0.6966020782568377
-0.28,-0.88,-0.625327158002154
-0.26,-0.88,-0.5441904549134391
-0.24,-0.88,-0.4544715432671187
-0.21999999999999997,-0.88,-0.35758534389533553
-0.19999999999999996,-0.88,-0.2550598100391924
-0.17999999999999994,-0.88,-0.1485118306133862
-0.16000000000000003,-0.88,-0.03962173090213931
-0.14,-0.88,0.06989322717430907
-0.12,-0.88,0.17830592730602857
-0.09999999999999998,-0.88,0.283906636449334
-0.07999999999999996,-0.88,0.38502996833822956
-0.05999999999999994,-0.88,0.4800811476206768
-0.040000000000000036,-0.88,0.5675611604185696
-0.020000000000000018,-0.88,0.6460903946720581
0.0,-0.88,0.7144303974458747
0.020000000000000018,-0.88,0.771503406071937
0.040000000000000036,-0.88,0.8164093451104497
0.06000000000000005,-0.88,0.8484400210772672
0.08000000000000007,-0.88,0.8670902910781947
0.10000000000000009,-0.88,0.872066029214186
0.1200000000000001,-0.88,0.8632887651224755
0.14000000000000012,-0.88,0.8408969215010722
0.15999999999999992,-0.88,0.8052436311001251
0.17999999999999994,-0.88,0.7568911676075001
0.19999999999999996,-0.88,0.6966020782568376
0.21999999999999997,-0.88,0.6253271580021538
0.24,-0.88,0.5441904549134389
0.26,-0.88,0.4544715432671185
0.28,-0.88,0.3575853438953354
0.30000000000000004,-0.88,0.2550598100391923
0.32000000000000006,-0.88,0.14851183061338605
0.3400000000000001,-0.88,0.03962173090213925
0.3600000000000001,-0.88,-0.06989322717430911
0.3800000000000001,-0.88,-0.17830592730602862
0.40000000000000013,-0.88,-0.28390663644933406
0.41999999999999993,-0.88,-0.3850299683382296
0.43999999999999995,-0.88,-0.4800811476206769
0.45999999999999996,-0.88,-0.5675611604185693
0.48,-0.88,-0.646090394672058
0.5,-0.88,-0.7144303974458746
0.52,-0.88,-0.7715034060719369
0.54,-0.88,-0.8164093451104497
0.56,-0.88,-0.8484400210772672
0.5800000000000001,-0.88,-0.8670902910781945
0.6000000000000001,-0.88,-0.8720660292141862
0.6200000000000001,-0.88,-0.8632887651224755
0.6400000000000001,-0.88,-0.8408969215010722
0.6600000000000001,-0.88,-0.8052436311001252
0.6799999999999999,-0.88,-0.7568911676075
0.7,-0.88,-0.6966020782568376
0.72,-0.88,-0.625327158002154
0.74,-0.88,-0.5441904549134389
0.76,-0.88,-0.4544715432671186
0.78,-0.88,-0.3575853438953354
0.8,-0.88,-0.2550598100391924
0.8200000000000001,-0.88,-0.1485118306133862
0.8400000000000001,-0.88,-0.03962173090213947
0.8600000000000001,-0.88,0.06989322717430894
0.8800000000000001,-0.88,0.17830592730602848
0.9000000000000001,-0.88,0.2839066364493339
0.9199999999999999,-0.88,0.38502996833822944
0.94,-0.88,0.4800811476206767
0.96,-0.88,0.5675611604185694
0.98,-0.88,0.6460903946720582
1.0,-0.88,0.7144303974458747

-1.0,-0.86,0.7064701404287095
-0.98,-0.86,0.760568637988258
-0.96,-0.86,0.8026725137850501
-0.94,-0.86,0.8321177645461335
-0.92,-0.86,0.8484400210772666
-0.9,-0.86,0.8513818716425094
-0.88,-0.86,0.8408969215010723
-0.86,-0.86,0.8171505245800914
-0.84,-0.86,0.78051717574442
-0.8200000000000001,-0.86,0.7315746047888989
-0.8,-0.86,0.671094665294371
-0.78,-0.86,0.6000311620356301
-0.76,-0.86,0.5195048089103457
-0.74,-0.86,0.4307855546114147
-0.72,-0.86,0.33527255477744505
-0.7,-0.86,0.23447210647251882
-0.6799999999999999,-0.86,0.12997389298167358
-0.6599999999999999,-0.86,0.023425913555867206
-0.64,-0.86,-0.08349150652067776
-0.62,-0.86,-0.18909221566398318
-0.6,-0.86,-0.2917108276080532
-0.5800000000000001,-0.86,-0.3897289855411423
-0.56,-0.86,-0.4816008845594365
-0.54,-0.86,-0.5658776499338051
-0.52,-0.86,-0.6412301867297949
-0.5,-0.86,-0.7064701404287095
-0.48,-0.86,-0.760568637988258
-0.45999999999999996,-0.86,-0.80267251378505
-0.43999999999999995,-0.86,-0.8321177645461335
-0.42000000000000004,-0.86,-0.8484400210772666
-0.4,-0.86,-0.8513818716425094
-0.38,-0.86,-0.8408969215010724
-0.36,-0.86,-0.8171505245800914
-0.33999999999999997,-0.86,-0.7805171757444199
-0.31999999999999995,-0.86,-0.7315746047888989
-0.29999999999999993,-0.86,-0.6710946652943711
-0.28,-0.86,-0.6000311620356303
-0.26,-0.86,-0.5195048089103458
-0.24,-0.86,-0.4307855546114147
-0.21999999999999997,-0.86,-0.33527255477744494
-0.19999999999999996,-0.86,-0.2344721064725187
-0.17999999999999994,-0.86,-0.12997389298167353
-0.16000000000000003,-0.86,-0.02342591355586715
-0.14,-0.86,0.08349150652067774
-0.12,-0.86,0.18909221566398313
-0.09999999999999998,-0.86,0.2917108276080532
-0.07999999999999996,-0.86,0.38972898554114227
-0.05999999999999994,-0.86,0.4816008845594366
-0.040000000000000036,-0.86,0.5658776499338052
-0.020000000000000018,-0.86,0.6412301867297949
0.0,-0.86,0.7064701404287096
0.020000000000000018,-0.86,0.760568637988258
0.040000000000000036,-0.86,0.8026725137850499
0.06000000000000005,-0.86,0.8321177645461335
0.08000000000000007,-0.86,0.8484400210772662
0.10000000000000009,-0.86,0.8513818716425094
0.1200000000000001,-0.86,0.8408969215010723
0.14000000000000012,-0.86,0.8171505245800913
0.15999999999999992,-0.86,0.7805171757444199
0.17999999999999994,-0.86,0.7315746047888987
0.19999999999999996,-0.86,0.671094665294371
0.21999999999999997,-0.86,0.6000311620356301
0.24,-0.86,0.5195048089103456
0.26,-0.86,0.43078555461141455
0.28,-0.86,0.33527255477744483
0.30000000000000004,-0.86,0.2344721064725185
0.32000000000000006,-0.86,0.12997389298167342
0.3400000000000001,-0.86,0.023425913555867102
0.3600000000000001,-0.86,-0.08349150652067779
0.3800000000000001,-0.86,-0.18909221566398315
0.40000000000000013,-0.86,-0.2917108276080532
0.41999999999999993,-0.86,-0.3897289855411423