TITLE = "Solution" 
VARIABLES = "x", "y", "sol" 
ZONE STRANDID=1, SOLUTIONTIME= 0.019999999999999997, I= 101, J =101, DATAPACKING=POINT 
-1.0,-1.0,0.007854209717842238
-0.98,-1.0,-0.007792276928278369
-0.96,-1.0,-0.023315874712359394
-0.94,-1.0,-0.038471767223998074
-0.92,-1.0,-0.0530209369845945
-0.9,-1.0,-0.06673393489577137
-0.88,-1.0,-0.0793944987887216
-0.86,-1.0,-0.090802964007799
-0.84,-1.0,-0.100779412241412
-0.8200000000000001,-1.0,-0.10916650894127516
-0.8,-1.0,-0.11583198458222296
-0.78,-1.0,-0.1206707206316355
-0.76,-1.0,-0.12360640733149278
-0.74,-1.0,-0.12459274714884375
-0.72,-1.0,-0.12361418491555799
-0.7,-1.0,-0.12068615314261916
-0.6799999999999999,-1.0,-0.11585482864020787
-0.6599999999999999,-1.0,-0.10919640428182048
-0.64,-1.0,-0.10081588739713879
-0.62,-1.0,-0.09084544374371228
-0.6,-1.0,-0.0794423131740098
-0.5800000000000001,-1.0,-0.06678632986901559
-0.56,-1.0,-0.05307708624576742
-0.54,-1.0,-0.038530785265709036
-0.52,-1.0,-0.023376830784834966
-0.5,-1.0,-0.00785420971784222
-0.48,-1.0,0.007792276928278354
-0.45999999999999996,-1.0,0.023315874712359373
-0.43999999999999995,-1.0,0.03847176722399806
-0.42000000000000004,-1.0,0.05302093698459448
-0.4,-1.0,0.06673393489577135
-0.38,-1.0,0.07939449878872157
-0.36,-1.0,0.090802964007799
-0.33999999999999997,-1.0,0.10077941224141196
-0.31999999999999995,-1.0,0.10916650894127514
-0.29999999999999993,-1.0,0.11583198458222296
-0.28,-1.0,0.1206707206316355
-0.26,-1.0,0.12360640733149277
-0.24,-1.0,0.12459274714884375
-0.21999999999999997,-1.0,0.12361418491555798
-0.19999999999999996,-1.0,0.12068615314261914
-0.17999999999999994,-1.0,0.11585482864020787
-0.16000000000000003,-1.0,0.10919640428182051
-0.14,-1.0,0.10081588739713881
-0.12,-1.0,0.09084544374371227
-0.09999999999999998,-1.0,0.0794423131740098
-0.07999999999999996,-1.0,0.06678632986901557
-0.05999999999999994,-1.0,0.05307708624576736
-0.040000000000000036,-1.0,0.038530785265708994
-0.020000000000000018,-1.0,0.02337683078483497
0.0,-1.0,0.007854209717842234
0.020000000000000018,-1.0,-0.007792276928278337
0.040000000000000036,-1.0,-0.023315874712359352
0.06000000000000005,-1.0,-0.03847176722399803
0.08000000000000007,-1.0,-0.053020936984594494
0.10000000000000009,-1.0,-0.06673393489577141
0.1200000000000001,-1.0,-0.07939449878872161
0.14000000000000012,-1.0,-0.09080296400779903
0.15999999999999992,-1.0,-0.10077941224141196
0.17999999999999994,-1.0,-0.1091665089412751
0.19999999999999996,-1.0,-0.11583198458222294
0.21999999999999997,-1.0,-0.12067072063163549
0.24,-1.0,-0.12360640733149277
0.26,-1.0,-0.12459274714884375
0.28,-1.0,-0.12361418491555798
0.30000000000000004,-1.0,-0.12068615314261914
0.32000000000000006,-1.0,-0.11585482864020785
0.3400000000000001,-1.0,-0.10919640428182051
0.3600000000000001,-1.0,-0.10081588739713879
0.3800000000000001,-1.0,-0.09084544374371223
0.40000000000000013,-1.0,-0.07944231317400974
0.41999999999999993,-1.0,-0.06678632986901559
0.43999999999999995,-1.0,-0.05307708624576745
0.45999999999999996,-1.0,-0.038530785265709064
0.48,-1.0,-0.023376830784834997
0.5,-1.0,-0.007854209717842252
0.52,-1.0,0.007792276928278324
0.54,-1.0,0.023315874712359345
0.56,-1.0,0.03847176722399803
0.5800000000000001,-1.0,0.05302093698459448
0.6000000000000001,-1.0,0.06673393489577137
0.6200000000000001,-1.0,0.0793944987887216
0.6400000000000001,-1.0,0.090802964007799
0.6600000000000001,-1.0,0.10077941224141196
0.6799999999999999,-1.0,0.10916650894127514
0.7,-1.0,0.11583198458222294
0.72,-1.0,0.1206707206316355
0.74,-1.0,0.12360640733149278
0.76,-1.0,0.12459274714884375
0.78,-1.0,0.12361418491555799
0.8,-1.0,0.12068615314261916
0.8200000000000001,-1.0,0.11585482864020788
0.8400000000000001,-1.0,0.10919640428182052
0.8600000000000001,-1.0,0.10081588739713879
0.8800000000000001,-1.0,0.09084544374371226
0.9000000000000001,-1.0,0.07944231317400974
0.9199999999999999,-1.0,0.06678632986901561
0.94,-1.0,0.053077086245767485
0.96,-1.0,0.038530785265709085
0.98,-1.0,0.023376830784835007
1.0,-1.0,0.00785420971784227

-1.0,-0.98,-0.007792276928278369
-0.98,-0.98,-0.007854209717842267
-0.96,-0.98,-0.007792276928278315
-0.94,-0.98,-0.007607455276674828
-0.92,-0.98,-0.007302659510884643
-0.9,-0.98,-0.006882696442210498
-0.88,-0.98,-0.006354189139119157
-0.86,-0.98,-0.005725472477495275
-0.84,-0.98,-0.0050064616946698115
-0.8200000000000001,-0.98,-0.004208496020204157
-0.8,-0.98,-0.003344159849466233
-0.78,-0.98,-0.002427084280197965
-0.76,-0.98,-0.001471732141961106
-0.74,-0.98,-0.000493169908675338
-0.72,-0.98,0.0004931699086756364
-0.7,-0.98,0.0014717321419613905
-0.6799999999999999,-0.98,0.0024270842801982634
-0.6599999999999999,-0.98,0.0033441598494665242
-0.64,-0.98,0.004208496020204414
-0.62,-0.98,0.0050064616946700335
-0.6,-0.98,0.005725472477495476
-0.5800000000000001,-0.98,0.006354189139119323
-0.56,-0.98,0.00688269644221064
-0.54,-0.98,0.007302659510884765
-0.52,-0.98,0.007607455276674897
-0.5,-0.98,0.007792276928278356
-0.48,-0.98,0.007854209717842252
-0.45999999999999996,-0.98,0.007792276928278316
-0.43999999999999995,-0.98,0.0076074552766748245
-0.42000000000000004,-0.98,0.007302659510884643
-0.4,-0.98,0.0068826964422104946
-0.38,-0.98,0.006354189139119157
-0.36,-0.98,0.005725472477495268
-0.33999999999999997,-0.98,0.005006461694669798
-0.31999999999999995,-0.98,0.004208496020204164
-0.29999999999999993,-0.98,0.0033441598494662397
-0.28,-0.98,0.002427084280197958
-0.26,-0.98,0.001471732141961099
-0.24,-0.98,0.0004931699086753449
-0.21999999999999997,-0.98,-0.0004931699086756433
-0.19999999999999996,-0.98,-0.0014717321419613905
-0.17999999999999994,-0.98,-0.0024270842801982634
-0.16000000000000003,-0.98,-0.0033441598494665103
-0.14,-0.98,-0.0042084960202044275
-0.12,-0.98,-0.005006461694670047
-0.09999999999999998,-0.98,-0.005725472477495469
-0.07999999999999996,-0.98,-0.006354189139119323
-0.05999999999999994,-0.98,-0.006882696442210668
-0.040000000000000036,-0.98,-0.007302659510884751
-0.020000000000000018,-0.98,-0.007607455276674875
0.0,-0.98,-0.007792276928278351
0.020000000000000018,-0.98,-0.00785420971784225
0.040000000000000036,-0.98,-0.007792276928278313
0.06000000000000005,-0.98,-0.007607455276674821
0.08000000000000007,-0.98,-0.0073026595108846674
0.10000000000000009,-0.98,-0.006882696442210512
0.1200000000000001,-0.98,-0.00635418913911915
0.14000000000000012,-0.98,-0.005725472477495275
0.15999999999999992,-0.98,-0.005006461694669777
0.17999999999999994,-0.98,-0.00420849602020415
0.19999999999999996,-0.98,-0.0033441598494662467
0.21999999999999997,-0.98,-0.002427084280197972
0.24,-0.98,-0.001471732141961106
0.26,-0.98,-0.0004931699086753449
0.28,-0.98,0.0004931699086756433
0.30000000000000004,-0.98,0.0014717321419613905
0.32000000000000006,-0.98,0.0024270842801982634
0.3400000000000001,-0.98,0.0033441598494665103
0.3600000000000001,-0.98,0.004208496020204441
0.3800000000000001,-0.98,0.005006461694670054
0.40000000000000013,-0.98,0.005725472477495483
0.41999999999999993,-0.98,0.006354189139119296
0.43999999999999995,-0.98,0.0068826964422106195
0.45999999999999996,-0.98,0.007302659510884765
0.48,-0.98,0.007607455276674897
0.5,-0.98,0.0077922769282783525
0.52,-0.98,0.007854209717842254
0.54,-0.98,0.007792276928278316
0.56,-0.98,0.0076074552766748245
0.5800000000000001,-0.98,0.0073026595108846536
0.6000000000000001,-0.98,0.006882696442210512
0.6200000000000001,-0.98,0.006354189139119157
0.6400000000000001,-0.98,0.005725472477495268
0.6600000000000001,-0.98,0.0050064616946698046
0.6799999999999999,-0.98,0.004208496020204157
0.7,-0.98,0.003344159849466233
0.72,-0.98,0.002427084280197972
0.74,-0.98,0.001471732141961106
0.76,-0.98,0.000493169908675338
0.78,-0.98,-0.0004931699086756364
0.8,-0.98,-0.0014717321419613905
0.8200000000000001,-0.98,-0.0024270842801982564
0.8400000000000001,-0.98,-0.0033441598494665173
0.8600000000000001,-0.98,-0.0042084960202044275
0.8800000000000001,-0.98,-0.005006461694670054
0.9000000000000001,-0.98,-0.005725472477495483
0.9199999999999999,-0.98,-0.006354189139119282
0.94,-0.98,-0.0068826964422106195
0.96,-0.98,-0.007302659510884775
0.98,-0.98,-0.007607455276674901
1.0,-0.98,-0.007792276928278353

-1.0,-0.96,-0.023315874712359394
-0.98,-0.96,-0.007792276928278315
-0.96,-0.96,0.007854209717842313
-0.94,-0.96,0.02337683078483507
-0.92,-0.96,0.038530785265709175
-0.9,-0.96,0.05307708624576755
-0.88,-0.96,0.06678632986901573
-0.86,-0.96,0.07944231317400999
-0.84,-0.96,0.09084544374371248
-0.8200000000000001,-0.96,0.10081588739713904
-0.8,-0.96,0.10919640428182073
-0.78,-0.96,0.11585482864020807
-0.76,-0.96,0.12068615314261935
-0.74,-0.96,0.1236141849155582
-0.72,-0.96,0.12459274714884391
-0.7,-0.96,0.12360640733149293
-0.6799999999999999,-0.96,0.12067072063163567
-0.6599999999999999,-0.96,0.11583198458222307
-0.64,-0.96,0.10916650894127525
-0.62,-0.96,0.10077941224141204
-0.6,-0.96,0.09080296400779908
-0.5800000000000001,-0.96,0.07939449878872164
-0.56,-0.96,0.06673393489577141
-0.54,-0.96,0.05302093698459452
-0.52,-0.96,0.03847176722399805
-0.5,-0.96,0.023315874712359345
-0.48,-0.96,0.0077922769282783
-0.45999999999999996,-0.96,-0.007854209717842299
-0.43999999999999995,-0.96,-0.02337683078483506
-0.42000000000000004,-0.96,-0.03853078526570916
-0.4,-0.96,-0.05307708624576753
-0.38,-0.96,-0.06678632986901573
-0.36,-0.96,-0.07944231317400996
-0.33999999999999997,-0.96,-0.09084544374371246
-0.31999999999999995,-0.96,-0.10081588739713901
-0.29999999999999993,-0.96,-0.10919640428182073
-0.28,-0.96,-0.11585482864020809
-0.26,-0.96,-0.12068615314261935
-0.24,-0.96,-0.1236141849155582
-0.21999999999999997,-0.96,-0.12459274714884391
-0.19999999999999996,-0.96,-0.12360640733149292
-0.17999999999999994,-0.96,-0.12067072063163564
-0.16000000000000003,-0.96,-0.11583198458222307
-0.14,-0.96,-0.10916650894127526
-0.12,-0.96,-0.10077941224141207
-0.09999999999999998,-0.96,-0.09080296400779905
-0.07999999999999996,-0.96,-0.07939449878872162
-0.05999999999999994,-0.96,-0.0667339348957714
-0.040000000000000036,-0.96,-0.05302093698459445
-0.020000000000000018,-0.96,-0.03847176722399801
0.0,-0.96,-0.023315874712359352
0.020000000000000018,-0.96,-0.007792276928278313
0.040000000000000036,-0.96,0.007854209717842276
0.06000000000000005,-0.96,0.023376830784835035
0.08000000000000007,-0.96,0.03853078526570912
0.10000000000000009,-0.96,0.05307708624576755
0.1200000000000001,-0.96,0.06678632986901578
0.14000000000000012,-0.96,0.07944231317400999
0.15999999999999992,-0.96,0.09084544374371249
0.17999999999999994,-0.96,0.100815887397139
0.19999999999999996,-0.96,0.10919640428182067
0.21999999999999997,-0.96,0.11585482864020805
0.24,-0.96,0.12068615314261935
0.26,-0.96,0.1236141849155582
0.28,-0.96,0.12459274714884391
0.30000000000000004,-0.96,0.12360640733149292
0.32000000000000006,-0.96,0.12067072063163564
0.3400000000000001,-0.96,0.11583198458222307
0.3600000000000001,-0.96,0.10916650894127525
0.3800000000000001,-0.96,0.10077941224141204
0.40000000000000013,-0.96,0.090802964007799
0.41999999999999993,-0.96,0.07939449878872157
0.43999999999999995,-0.96,0.0667339348957714
0.45999999999999996,-0.96,0.05302093698459455
0.48,-0.96,0.03847176722399808
0.5,-0.96,0.023315874712359373
0.52,-0.96,0.007792276928278332
0.54,-0.96,-0.007854209717842262
0.56,-0.96,-0.02337683078483503
0.5800000000000001,-0.96,-0.038530785265709126
0.6000000000000001,-0.96,-0.05307708624576752
0.6200000000000001,-0.96,-0.06678632986901573
0.6400000000000001,-0.96,-0.07944231317400999
0.6600000000000001,-0.96,-0.09084544374371245
0.6799999999999999,-0.96,-0.10081588739713901
0.7,-0.96,-0.10919640428182073
0.72,-0.96,-0.11585482864020805
0.74,-0.96,-0.12068615314261935
0.76,-0.96,-0.1236141849155582
0.78,-0.96,-0.12459274714884391
0.8,-0.96,-0.12360640733149295
0.8200000000000001,-0.96,-0.12067072063163566
0.8400000000000001,-0.96,-0.1158319845822231
0.8600000000000001,-0.96,-0.10916650894127528
0.8800000000000001,-0.96,-0.10077941224141206
0.9000000000000001,-0.96,-0.09080296400779903
0.9199999999999999,-0.96,-0.0793944987887216
0.94,-0.96,-0.06673393489577144
0.96,-0.96,-0.05302093698459459
0.98,-0.96,-0.038471767223998095
1.0,-0.96,-0.023315874712359394

-1.0,-0.94,-0.038471767223998074
-0.98,-0.94,-0.007607455276674828
-0.96,-0.94,0.023376830784835066
-0.94,-0.94,0.053992450260226255
-0.92,-0.94,0.08375657654148726
-0.9,-0.94,0.11219981157693532
-0.88,-0.94,0.13887358855889653
-0.86,-0.94,0.1633572460902234
-0.84,-0.94,0.18526466226581872
-0.8200000000000001,-0.94,0.2042503440457373
-0.8,-0.94,0.22001487588681323
-0.78,-0.94,0.23230964170463791
-0.76,-0.94,0.24094074569772728
-0.74,-0.94,0.24577207020013855
-0.72,-0.94,0.24672742233837536
-0.7,-0.94,0.24379173563851808
-0.6799999999999999,-0.94,0.23701130763351763
-0.6599999999999999,-0.94,0.2264930697234443
-0.64,-0.94,0.21240290080343055
-0.62,-0.94,0.19496301125440418
-0.6,-0.94,0.17444843855263817
-0.5800000000000001,-0.94,0.1511827097644511
-0.56,-0.94,0.12553273933110543
-0.54,-0.94,0.0979030426088847
-0.52,-0.94,0.06872935642027898
-0.5,-0.94,0.03847176722399801
-0.48,-0.94,0.007607455276674809
-0.45999999999999996,-0.94,-0.023376830784835045
-0.43999999999999995,-0.94,-0.05399245026022624
-0.42000000000000004,-0.94,-0.08375657654148723
-0.4,-0.94,-0.1121998115769353
-0.38,-0.94,-0.13887358855889653
-0.36,-0.94,-0.16335724609022337
-0.33999999999999997,-0.94,-0.18526466226581867
-0.31999999999999995,-0.94,-0.20425034404573728
-0.29999999999999993,-0.94,-0.22001487588681323
-0.28,-0.94,-0.23230964170463797
-0.26,-0.94,-0.24094074569772722
-0.24,-0.94,-0.2457720702001385
-0.21999999999999997,-0.94,-0.24672742233837536
-0.19999999999999996,-0.94,-0.24379173563851808
-0.17999999999999994,-0.94,-0.23701130763351763
-0.16000000000000003,-0.94,-0.2264930697234443
-0.14,-0.94,-0.2124029008034306
-0.12,-0.94,-0.19496301125440418
-0.09999999999999998,-0.94,-0.17444843855263814
-0.07999999999999996,-0.94,-0.15118270976445108
-0.05999999999999994,-0.94,-0.12553273933110537
-0.040000000000000036,-0.94,-0.09790304260888456
-0.020000000000000018,-0.94,-0.06872935642027893
0.0,-0.94,-0.03847176722399802
0.020000000000000018,-0.94,-0.007607455276674843
0.040000000000000036,-0.94,0.023376830784834997
0.06000000000000005,-0.94,0.05399245026022618
0.08000000000000007,-0.94,0.08375657654148719
0.10000000000000009,-0.94,0.11219981157693537
0.1200000000000001,-0.94,0.13887358855889662
0.14000000000000012,-0.94,0.16335724609022345
0.15999999999999992,-0.94,0.18526466226581872
0.17999999999999994,-0.94,0.20425034404573722
0.19999999999999996,-0.94,0.22001487588681315
0.21999999999999997,-0.94,0.23230964170463791
0.24,-0.94,0.24094074569772722
0.26,-0.94,0.2457720702001385
0.28,-0.94,0.24672742233837536
0.30000000000000004,-0.94,0.24379173563851808
0.32000000000000006,-0.94,0.23701130763351763
0.3400000000000001,-0.94,0.2264930697234443
0.3600000000000001,-0.94,0.2124029008034306
0.3800000000000001,-0.94,0.19496301125440413
0.40000000000000013,-0.94,0.17444843855263803
0.41999999999999993,-0.94,0.151182709764451
0.43999999999999995,-0.94,0.12553273933110543
0.45999999999999996,-0.94,0.09790304260888474
0.48,-0.94,0.06872935642027904
0.5,-0.94,0.03847176722399807
0.52,-0.94,0.007607455276674876
0.54,-0.94,-0.023376830784834983
0.56,-0.94,-0.05399245026022617
0.5800000000000001,-0.94,-0.08375657654148719
0.6000000000000001,-0.94,-0.11219981157693529
0.6200000000000001,-0.94,-0.13887358855889653
0.6400000000000001,-0.94,-0.16335724609022337
0.6600000000000001,-0.94,-0.18526466226581867
0.6799999999999999,-0.94,-0.20425034404573728
0.7,-0.94,-0.2200148758868132
0.72,-0.94,-0.23230964170463786
0.74,-0.94,-0.24094074569772728
0.76,-0.94,-0.24577207020013855
0.78,-0.94,-0.24672742233837536
0.8,-0.94,-0.24379173563851808
0.8200000000000001,-0.94,-0.23701130763351766
0.8400000000000001,-0.94,-0.2264930697234443
0.8600000000000001,-0.94,-0.2124029008034306
0.8800000000000001,-0.94,-0.19496301125440416
0.9000000000000001,-0.94,-0.17444843855263806
0.9199999999999999,-0.94,-0.15118270976445106
0.94,-0.94,-0.1255327393311055
0.96,-0.94,-0.09790304260888483
0.98,-0.94,-0.06872935642027908
1.0,-0.94,-0.038471767223998095

-1.0,-0.92,-0.0530209369845945
-0.98,-0.92,-0.007302659510884643
-0.96,-0.92,0.03853078526570917
-0.94,-0.92,0.08375657654148726
-0.92,-0.92,0.12766147657145246
-0.9,-0.92,0.16955307885461615
-0.88,-0.92,0.20877072779814282
-0.86,-0.92,0.2446959376507052
-0.84,-0.92,0.27676214639224805
-0.8200000000000001,-0.92,0.3044636507554928
-0.8,-0.92,0.3273635814685543
-0.78,-0.92,0.3451007929443322
-0.76,-0.92,0.35739555876215695
-0.74,-0.92,0.36405398312054427
-0.72,-0.92,0.36497105868981244
-0.7,-0.92,0.3601323226403999
-0.6799999999999999,-0.92,0.3496140847303265
-0.6599999999999999,-0.92,0.33358222385472497
-0.64,-0.92,0.312289572036573
-0.62,-0.92,0.28607192711465657
-0.6,-0.92,0.2553427570110561
-0.5800000000000001,-0.92,0.22058667909502186
-0.56,-0.92,0.18235181747756424
-0.54,-0.92,0.14124115876678986
-0.52,-0.92,0.09790304260888463
-0.5,-0.92,0.053020936984594404
-0.48,-0.92,0.00730265951088463
-0.45999999999999996,-0.92,-0.03853078526570913
-0.43999999999999995,-0.92,-0.08375657654148723
-0.42000000000000004,-0.92,-0.1276614765714524
-0.4,-0.92,-0.1695530788546161
-0.38,-0.92,-0.20877072779814282
-0.36,-0.92,-0.24469593765070513
-0.33999999999999997,-0.92,-0.27676214639224805
-0.31999999999999995,-0.92,-0.3044636507554927
-0.29999999999999993,-0.92,-0.3273635814685544
-0.28,-0.92,-0.34510079294433227
-0.26,-0.92,-0.3573955587621569
-0.24,-0.92,-0.36405398312054427
-0.21999999999999997,-0.92,-0.36497105868981244
-0.19999999999999996,-0.92,-0.36013232264039985
-0.17999999999999994,-0.92,-0.3496140847303265
-0.16000000000000003,-0.92,-0.333582223854725
-0.14,-0.92,-0.31228957203657304
-0.12,-0.92,-0.28607192711465657
-0.09999999999999998,-0.92,-0.2553427570110561
-0.07999999999999996,-0.92,-0.2205866790950218
-0.05999999999999994,-0.92,-0.18235181747756413
-0.040000000000000036,-0.92,-0.1412411587667897
-0.020000000000000018,-0.92,-0.09790304260888454
0.0,-0.92,-0.053020936984594425
0.020000000000000018,-0.92,-0.007302659510884672
0.040000000000000036,-0.92,0.03853078526570908
0.06000000000000005,-0.92,0.08375657654148713
0.08000000000000007,-0.92,0.12766147657145235
0.10000000000000009,-0.92,0.1695530788546162
0.1200000000000001,-0.92,0.2087707277981429
0.14000000000000012,-0.92,0.24469593765070524
0.15999999999999992,-0.92,0.2767621463922481
0.17999999999999994,-0.92,0.30446365075549264
0.19999999999999996,-0.92,0.32736358146855415
0.21999999999999997,-0.92,0.34510079294433216
0.24,-0.92,0.35739555876215684
0.26,-0.92,0.36405398312054427
0.28,-0.92,0.36497105868981244
0.30000000000000004,-0.92,0.36013232264039985
0.32000000000000006,-0.92,0.3496140847303265
0.3400000000000001,-0.92,0.333582223854725
0.3600000000000001,-0.92,0.312289572036573
0.3800000000000001,-0.92,0.28607192711465645
0.40000000000000013,-0.92,0.2553427570110559
0.41999999999999993,-0.92,0.2205866790950217
0.43999999999999995,-0.92,0.18235181747756424
0.45999999999999996,-0.92,0.14124115876678994
0.48,-0.92,0.09790304260888469
0.5,-0.92,0.05302093698459449
0.52,-0.92,0.007302659510884719
0.54,-0.92,-0.038530785265709036
0.56,-0.92,-0.08375657654148713
0.5800000000000001,-0.92,-0.12766147657145235
0.6000000000000001,-0.92,-0.16955307885461612
0.6200000000000001,-0.92,-0.20877072779814282
0.6400000000000001,-0.92,-0.2446959376507052
0.6600000000000001,-0.92,-0.276762146392248
0.6799999999999999,-0.92,-0.30446365075549275
0.7,-0.92,-0.32736358146855427
0.72,-0.92,-0.34510079294433216
0.74,-0.92,-0.35739555876215695
0.76,-0.92,-0.36405398312054427
0.78,-0.92,-0.36497105868981244
0.8,-0.92,-0.3601323226403999
0.8200000000000001,-0.92,-0.34961408473032657
0.8400000000000001,-0.92,-0.333582223854725
0.8600000000000001,-0.92,-0.3122895720365731
0.8800000000000001,-0.92,-0.28607192711465645
0.9000000000000001,-0.92,-0.25534275701105597
0.9199999999999999,-0.92,-0.22058667909502175
0.94,-0.92,-0.18235181747756432
0.96,-0.92,-0.14124115876679005
0.98,-0.92,-0.09790304260888474
1.0,-0.92,-0.053020936984594536

-1.0,-0.9,-0.06673393489577138
-0.98,-0.9,-0.006882696442210497
-0.96,-0.9,0.05307708624576755
-0.94,-0.9,0.11219981157693533
-0.92,-0.9,0.16955307885461618
-0.9,-0.9,0.22423239279265977
-0.88,-0.9,0.27537542794642456
-0.86,-0.9,0.3221756281001674
-0.84,-0.9,0.3638949261403791
-0.8200000000000001,-0.9,0.399875383815065
-0.8,-0.9,0.42954956781301157
-0.78,-0.9,0.452449498526073
-0.76,-0.9,0.4682140303671489
-0.74,-0.9,0.47659454725183065
-0.72,-0.9,0.4774588834225685
-0.7,-0.9,0.4707934077816207
-0.6799999999999999,-0.9,0.456703238861607
-0.6599999999999999,-0.9,0.43541058704345503
-0.64,-0.9,0.4072512501659507
-0.62,-0.9,0.3726693177932248
-0.6,-0.9,0.3322101676570402
-0.5800000000000001,-0.9,0.28651186472416906
-0.56,-0.9,0.23629509853070613
-0.54,-0.9,0.1823518174775642
-0.52,-0.9,0.1255327393311053
-0.5,-0.9,0.06673393489577124
-0.48,-0.9,0.006882696442210483
-0.45999999999999996,-0.9,-0.05307708624576749
-0.43999999999999995,-0.9,-0.11219981157693527
-0.42000000000000004,-0.9,-0.16955307885461607
-0.4,-0.9,-0.22423239279265975
-0.38,-0.9,-0.2753754279464245
-0.36,-0.9,-0.3221756281001673
-0.33999999999999997,-0.9,-0.363894926140379
-0.31999999999999995,-0.9,-0.3998753838150649
-0.29999999999999993,-0.9,-0.42954956781301157
-0.28,-0.9,-0.4524494985260731
-0.26,-0.9,-0.46821403036714904
-0.24,-0.9,-0.47659454725183065
-0.21999999999999997,-0.9,-0.4774588834225685
-0.19999999999999996,-0.9,-0.47079340778162065
-0.17999999999999994,-0.9,-0.456703238861607
-0.16000000000000003,-0.9,-0.4354105870434551
-0.14,-0.9,-0.4072512501659508
-0.12,-0.9,-0.3726693177932248
-0.09999999999999998,-0.9,-0.33221016765704015
-0.07999999999999996,-0.9,-0.286511864724169
-0.05999999999999994,-0.9,-0.236295098530706
-0.040000000000000036,-0.9,-0.18235181747756396
-0.020000000000000018,-0.9,-0.1255327393311052
0.0,-0.9,-0.06673393489577129
0.020000000000000018,-0.9,-0.006882696442210539
0.040000000000000036,-0.9,0.05307708624576742
0.06000000000000005,-0.9,0.11219981157693516
0.08000000000000007,-0.9,0.16955307885461604
0.10000000000000009,-0.9,0.2242323927926598
0.1200000000000001,-0.9,0.27537542794642467
0.14000000000000012,-0.9,0.3221756281001675
0.15999999999999992,-0.9,0.36389492614037905
0.17999999999999994,-0.9,0.3998753838150648
0.19999999999999996,-0.9,0.4295495678130114
0.21999999999999997,-0.9,0.452449498526073
0.24,-0.9,0.46821403036714904
0.26,-0.9,0.47659454725183065
0.28,-0.9,0.4774588834225685
0.30000000000000004,-0.9,0.47079340778162065
0.32000000000000006,-0.9,0.45670323886160696
0.3400000000000001,-0.9,0.4354105870434551
0.3600000000000001,-0.9,0.40725125016595076
0.3800000000000001,-0.9,0.3726693177932247
0.40000000000000013,-0.9,0.3322101676570399
0.41999999999999993,-0.9,0.2865118647241689
0.43999999999999995,-0.9,0.23629509853070613
0.45999999999999996,-0.9,0.1823518174775643
0.48,-0.9,0.12553273933110543
0.5,-0.9,0.06673393489577135
0.52,-0.9,0.006882696442210605
0.54,-0.9,-0.05307708624576737
0.56,-0.9,-0.11219981157693516
0.5800000000000001,-0.9,-0.16955307885461604
0.6000000000000001,-0.9,-0.22423239279265975
0.6200000000000001,-0.9,-0.2753754279464246
0.6400000000000001,-0.9,-0.32217562810016737
0.6600000000000001,-0.9,-0.36389492614037905
0.6799999999999999,-0.9,-0.3998753838150649
0.7,-0.9,-0.42954956781301146
0.72,-0.9,-0.452449498526073
0.74,-0.9,-0.4682140303671489
0.76,-0.9,-0.47659454725183065
0.78,-0.9,-0.4774588834225685
0.8,-0.9,-0.47079340778162077
0.8200000000000001,-0.9,-0.4567032388616071
0.8400000000000001,-0.9,-0.43541058704345514
0.8600000000000001,-0.9,-0.40725125016595076
0.8800000000000001,-0.9,-0.37266931779322476
0.9000000000000001,-0.9,-0.33221016765704
0.9199999999999999,-0.9,-0.286511864724169
0.94,-0.9,-0.23629509853070627
0.96,-0.9,-0.1823518174775644
0.98,-0.9,-0.12553273933110548
1.0,-0.9,-0.06673393489577142

-1.0,-0.88,-0.0793944987887216
-0.98,-0.88,-0.006354189139119156
-0.96,-0.88,0.06678632986901574
-0.94,-0.88,0.13887358855889653
-0.92,-0.88,0.20877072779814282
-0.9,-0.88,0.27537542794642456
-0.88,-0.88,0.3376372930946844
-0.86,-0.88,0.3945744164360986
-0.84,-0.88,0.4452888655229844
-0.8200000000000001,-0.88,0.4889808431978981
-0.8,-0.88,0.5249613008725839
-0.78,-0.88,0.5526628052358284
-0.76,-0.88,0.571648487015747
-0.74,-0.88,0.5816189306691735
-0.72,-0.88,0.5824168963436391
-0.7,-0.88,0.574029799643776
-0.6799999999999999,-0.88,0.5565899100947495
-0.6599999999999999,-0.88,0.530372265172833
-0.64,-0.88,0.495790332800107
-0.62,-0.88,0.4533894907083345
-0.6,-0.88,0.40383842550633803
-0.5800000000000001,-0.88,0.3479185870927245
-0.56,-0.88,0.2865118647241691
-0.54,-0.88,0.22058667909502172
-0.52,-0.88,0.15118270976445095
-0.5,-0.88,0.07939449878872144
-0.48,-0.88,0.0063541891391191456
-0.45999999999999996,-0.88,-0.06678632986901566
-0.43999999999999995,-0.88,-0.13887358855889648
-0.42000000000000004,-0.88,-0.20877072779814276
-0.4,-0.88,-0.2753754279464245
-0.38,-0.88,-0.33763729309468427
-0.36,-0.88,-0.39457441643609853
-0.33999999999999997,-0.88,-0.4452888655229843
-0.31999999999999995,-0.88,-0.48898084319789803
-0.29999999999999993,-0.88,-0.524961300872584
-0.28,-0.88,-0.5526628052358286
-0.26,-0.88,-0.571648487015747
-0.24,-0.88,-0.5816189306691735
-0.21999999999999997,-0.88,-0.582416896343639
-0.19999999999999996,-0.88,-0.5740297996437758
-0.17999999999999994,-0.88,-0.5565899100947495
-0.16000000000000003,-0.88,-0.530372265172833
-0.14,-0.88,-0.495790332800107
-0.12,-0.88,-0.4533894907083345
-0.09999999999999998,-0.88,-0.403838425506338
-0.07999999999999996,-0.88,-0.3479185870927245
-0.05999999999999994,-0.88,-0.28651186472416895
-0.040000000000000036,-0.88,-0.2205866790950215
-0.020000000000000018,-0.88,-0.15118270976445086
0.0,-0.88,-0.07939449878872147
0.020000000000000018,-0.88,-0.006354189139119215
0.040000000000000036,-0.88,0.06678632986901557
0.06000000000000005,-0.88,0.13887358855889637
0.08000000000000007,-0.88,0.2087707277981427
0.10000000000000009,-0.88,0.2753754279464246
0.1200000000000001,-0.88,0.33763729309468443
0.14000000000000012,-0.88,0.3945744164360987
0.15999999999999992,-0.88,0.4452888655229844
0.17999999999999994,-0.88,0.488980843197898
0.19999999999999996,-0.88,0.5249613008725837
0.21999999999999997,-0.88,0.5526628052358284
0.24,-0.88,0.571648487015747
0.26,-0.88,0.5816189306691735
0.28,-0.88,0.582416896343639
0.30000000000000004,-0.88,0.5740297996437758
0.32000000000000006,-0.88,0.5565899100947495
0.3400000000000001,-0.88,0.530372265172833
0.3600000000000001,-0.88,0.495790332800107
0.3800000000000001,-0.88,0.4533894907083344
0.40000000000000013,-0.88,0.4038384255063377
0.41999999999999993,-0.88,0.3479185870927243
0.43999999999999995,-0.88,0.2865118647241691
0.45999999999999996,-0.88,0.2205866790950219
0.48,-0.88,0.15118270976445108
0.5,-0.88,0.0793944987887216
0.52,-0.88,0.006354189139119284
0.54,-0.88,-0.06678632986901553
0.56,-0.88,-0.13887358855889634
0.5800000000000001,-0.88,-0.20877072779814265
0.6000000000000001,-0.88,-0.27537542794642456
0.6200000000000001,-0.88,-0.3376372930946844
0.6400000000000001,-0.88,-0.3945744164360986
0.6600000000000001,-0.88,-0.44528886552298436
0.6799999999999999,-0.88,-0.48898084319789803
0.7,-0.88,-0.5249613008725839
0.72,-0.88,-0.5526628052358284
0.74,-0.88,-0.571648487015747
0.76,-0.88,-0.5816189306691735
0.78,-0.88,-0.5824168963436391
0.8,-0.88,-0.574029799643776
0.8200000000000001,-0.88,-0.5565899100947496
0.8400000000000001,-0.88,-0.5303722651728331
0.8600000000000001,-0.88,-0.495790332800107
0.8800000000000001,-0.88,-0.4533894907083344
0.9000000000000001,-0.88,-0.40383842550633775
0.9199999999999999,-0.88,-0.3479185870927244
0.94,-0.88,-0.2865118647241693
0.96,-0.88,-0.22058667909502205
0.98,-0.88,-0.15118270976445117
1.0,-0.88,-0.07939449878872165

-1.0,-0.86,-0.09080296400779901
-0.98,-0.86,-0.005725472477495281
-0.96,-0.86,0.07944231317400997
-0.94,-0.86,0.1633572460902234
-0.92,-0.86,0.2446959376507052
-0.9,-0.86,0.3221756281001674
-0.88,-0.86,0.3945744164360986
-0.86,-0.86,0.4607505305175015
-0.84,-0.86,0.519660333493618
-0.8200000000000001,-0.86,0.5703747825805037
-0.8,-0.86,0.6120940806207152
-0.78,-0.86,0.644160289362258
-0.76,-0.86,0.6660677055378532
-0.74,-0.86,0.6774708361075557
-0.72,-0.86,0.6781898468903811
-0.7,-0.86,0.668213398656768
-0.6799999999999999,-0.86,0.647698825955002
-0.6599999999999999,-0.86,0.6169696558514015
-0.64,-0.86,0.5765105057152167
-0.62,-0.86,0.5269594405132204
-0.6,-0.86,0.4690979101440191
-0.5800000000000001,-0.86,0.40383842550633803
-0.56,-0.86,0.33221016765704015
-0.54,-0.86,0.255342757011056
-0.52,-0.86,0.17444843855263797
-0.5,-0.86,0.09080296400779883
-0.48,-0.86,0.0057254724774952635
-0.45999999999999996,-0.86,-0.07944231317400989
-0.43999999999999995,-0.86,-0.1633572460902233
-0.42000000000000004,-0.86,-0.24469593765070508
-0.4,-0.86,-0.3221756281001673
-0.38,-0.86,-0.3945744164360986
-0.36,-0.86,-0.4607505305175014
-0.33999999999999997,-0.86,-0.5196603334936177
-0.31999999999999995,-0.86,-0.5703747825805034
-0.29999999999999993,-0.86,-0.6120940806207151
-0.28,-0.86,-0.644160289362258
-0.26,-0.86,-0.6660677055378532
-0.24,-0.86,-0.6774708361075557
-0.21999999999999997,-0.86,-0.678189846890381
-0.19999999999999996,-0.86,-0.668213398656768
-0.17999999999999994,-0.86,-0.647698825955002
-0.16000000000000003,-0.86,-0.6169696558514014
-0.14,-0.86,-0.5765105057152168
-0.12,-0.86,-0.5269594405132204
-0.09999999999999998,-0.86,-0.469097910144019
-0.07999999999999996,-0.86,-0.403838425506338
-0.05999999999999994,-0.86,-0.3322101676570399
-0.040000000000000036,-0.86,-0.25534275701105574
-0.020000000000000018,-0.86,-0.17444843855263786
0.0,-0.86,-0.0908029640077989
0.020000000000000018,-0.86,-0.005725472477495347
0.040000000000000036,-0.86,0.07944231317400978
0.06000000000000005,-0.86,0.16335724609022317
0.08000000000000007,-0.86,0.244695937650705
0.10000000000000009,-0.86,0.3221756281001675
0.1200000000000001,-0.86,0.3945744164360988
0.14000000000000012,-0.86,0.46075053051750164
0.15999999999999992,-0.86,0.5196603334936178
0.17999999999999994,-0.86,0.5703747825805033