TITLE = "Solution" 
VARIABLES = "x", "y", "sol" 
ZONE STRANDID=1, SOLUTIONTIME= 0.24000000000000005, I= 101, J =101, DATAPACKING=POINT 
-1.0,-1.0,0.9095380549666248
-0.98,-1.0,0.8945118660195216
-0.96,-1.0,0.865378690589803
-0.94,-1.0,0.8225979762573116
-0.92,-1.0,0.7668444004430295
-0.9,-1.0,0.6989972303431209
-0.88,-1.0,0.6201264563599959
-0.86,-1.0,0.5314759177144848
-0.84,-1.0,0.43444368635829256
-0.8200000000000001,-1.0,0.3305600185441512
-0.8,-1.0,0.22146322177058497
-0.78,-1.0,0.1088738176939805
-0.76,-1.0,-0.005432591525724365
-0.74,-1.0,-0.11965332553179572
-0.72,-1.0,-0.2319870551167986
-0.7,-1.0,-0.3406622102602602
-0.6799999999999999,-1.0,-0.443964918846177
-0.6599999999999999,-1.0,-0.5402660354501024
-0.64,-1.0,-0.6280468339356939
-0.62,-1.0,-0.7059229586731265
-0.6,-1.0,-0.7726662566543488
-0.5800000000000001,-1.0,-0.8272241461996831
-0.56,-1.0,-0.8687362167996965
-0.54,-1.0,-0.8965477983029176
-0.52,-1.0,-0.9102202854552066
-0.5,-1.0,-0.9095380549666248
-0.48,-1.0,-0.8945118660195216
-0.45999999999999996,-1.0,-0.8653786905898032
-0.43999999999999995,-1.0,-0.8225979762573115
-0.42000000000000004,-1.0,-0.7668444004430296
-0.4,-1.0,-0.6989972303431209
-0.38,-1.0,-0.6201264563599957
-0.36,-1.0,-0.531475917714485
-0.33999999999999997,-1.0,-0.43444368635829245
-0.31999999999999995,-1.0,-0.330560018544151
-0.29999999999999993,-1.0,-0.22146322177058483
-0.28,-1.0,-0.1088738176939804
-0.26,-1.0,0.005432591525724424
-0.24,-1.0,0.11965332553179568
-0.21999999999999997,-1.0,0.2319870551167985
-0.19999999999999996,-1.0,0.3406622102602601
-0.17999999999999994,-1.0,0.443964918846177
-0.16000000000000003,-1.0,0.5402660354501024
-0.14,-1.0,0.628046833935694
-0.12,-1.0,0.7059229586731264
-0.09999999999999998,-1.0,0.7726662566543486
-0.07999999999999996,-1.0,0.8272241461996832
-0.05999999999999994,-1.0,0.8687362167996968
-0.040000000000000036,-1.0,0.8965477983029175
-0.020000000000000018,-1.0,0.9102202854552066
0.0,-1.0,0.9095380549666247
0.020000000000000018,-1.0,0.8945118660195217
0.040000000000000036,-1.0,0.865378690589803
0.06000000000000005,-1.0,0.8225979762573112
0.08000000000000007,-1.0,0.7668444004430295
0.10000000000000009,-1.0,0.6989972303431209
0.1200000000000001,-1.0,0.6201264563599956
0.14000000000000012,-1.0,0.5314759177144848
0.15999999999999992,-1.0,0.4344436863582922
0.17999999999999994,-1.0,0.3305600185441509
0.19999999999999996,-1.0,0.22146322177058467
0.21999999999999997,-1.0,0.10887381769398032
0.24,-1.0,-0.005432591525724431
0.26,-1.0,-0.11965332553179571
0.28,-1.0,-0.2319870551167986
0.30000000000000004,-1.0,-0.3406622102602601
0.32000000000000006,-1.0,-0.4439649188461771
0.3400000000000001,-1.0,-0.5402660354501027
0.3600000000000001,-1.0,-0.6280468339356939
0.3800000000000001,-1.0,-0.7059229586731265
0.40000000000000013,-1.0,-0.7726662566543486
0.41999999999999993,-1.0,-0.8272241461996832
0.43999999999999995,-1.0,-0.8687362167996966
0.45999999999999996,-1.0,-0.8965477983029175
0.48,-1.0,-0.9102202854552066
0.5,-1.0,-0.9095380549666248
0.52,-1.0,-0.8945118660195217
0.54,-1.0,-0.8653786905898031
0.56,-1.0,-0.8225979762573112
0.5800000000000001,-1.0,-0.7668444004430294
0.6000000000000001,-1.0,-0.6989972303431208
0.6200000000000001,-1.0,-0.6201264563599959
0.6400000000000001,-1.0,-0.5314759177144848
0.6600000000000001,-1.0,-0.4344436863582923
0.6799999999999999,-1.0,-0.330560018544151
0.7,-1.0,-0.22146322177058494
0.72,-1.0,-0.1088738176939805
0.74,-1.0,0.005432591525724229
0.76,-1.0,0.11965332553179553
0.78,-1.0,0.23198705511679843
0.8,-1.0,0.3406622102602599
0.8200000000000001,-1.0,0.443964918846177
0.8400000000000001,-1.0,0.5402660354501024
0.8600000000000001,-1.0,0.6280468339356939
0.8800000000000001,-1.0,0.7059229586731265
0.9000000000000001,-1.0,0.7726662566543486
0.9199999999999999,-1.0,0.8272241461996829
0.94,-1.0,0.8687362167996967
0.96,-1.0,0.8965477983029178
0.98,-1.0,0.9102202854552067
1.0,-1.0,0.9095380549666248

-1.0,-0.98,0.8945118660195216
-0.98,-0.98,0.8783689472535111
-0.96,-0.98,0.8483736254771377
-0.94,-0.98,0.8049989448331508
-0.92,-0.98,0.748928949946085
-0.9,-0.98,0.6810478981299005
-0.88,-0.98,0.6024263141219133
-0.86,-0.98,0.5143041072681875
-0.84,-0.98,0.4180710174124605
-0.8200000000000001,-0.98,0.3152446978686187
-0.8,-0.98,0.2074467811213342
-0.78,-0.98,0.09637730471306591
-0.76,-0.98,-0.01621209936353865
-0.74,-0.98,-0.12854582894854155
-0.72,-0.98,-0.23885231402146986
-0.7,-0.98,-0.3453919554188231
-0.6799999999999999,-0.98,-0.44648455935206843
-0.6599999999999999,-0.98,-0.5405358350673841
-0.64,-0.98,-0.626062537763231
-0.62,-0.98,-0.7017158602469198
-0.6,-0.98,-0.7663027044297779
-0.5800000000000001,-0.98,-0.8188044971967321
-0.56,-0.98,-0.8583932539127961
-0.54,-0.98,-0.8844446362353804
-0.52,-0.98,-0.8965477983029168
-0.5,-0.98,-0.8945118660195216
-0.48,-0.98,-0.8783689472535112
-0.45999999999999996,-0.98,-0.8483736254771378
-0.43999999999999995,-0.98,-0.8049989448331509
-0.42000000000000004,-0.98,-0.7489289499460852
-0.4,-0.98,-0.6810478981299005
-0.38,-0.98,-0.6024263141219135
-0.36,-0.98,-0.5143041072681875
-0.33999999999999997,-0.98,-0.4180710174124604
-0.31999999999999995,-0.98,-0.31524469786861853
-0.29999999999999993,-0.98,-0.2074467811213341
-0.28,-0.98,-0.0963773047130658
-0.26,-0.98,0.0162120993635387
-0.24,-0.98,0.1285458289485415
-0.21999999999999997,-0.98,0.23885231402146978
-0.19999999999999996,-0.98,0.34539195541882306
-0.17999999999999994,-0.98,0.4464845593520684
-0.16000000000000003,-0.98,0.5405358350673842
-0.14,-0.98,0.6260625377632308
-0.12,-0.98,0.7017158602469196
-0.09999999999999998,-0.98,0.766302704429778
-0.07999999999999996,-0.98,0.8188044971967322
-0.05999999999999994,-0.98,0.858393253912796
-0.040000000000000036,-0.98,0.8844446362353803
-0.020000000000000018,-0.98,0.8965477983029168
0.0,-0.98,0.8945118660195217
0.020000000000000018,-0.98,0.8783689472535111
0.040000000000000036,-0.98,0.8483736254771375
0.06000000000000005,-0.98,0.8049989448331508
0.08000000000000007,-0.98,0.748928949946085
0.10000000000000009,-0.98,0.6810478981299004
0.1200000000000001,-0.98,0.6024263141219133
0.14000000000000012,-0.98,0.5143041072681872
0.15999999999999992,-0.98,0.4180710174124603
0.17999999999999994,-0.98,0.31524469786861836
0.19999999999999996,-0.98,0.20744678112133397
0.21999999999999997,-0.98,0.09637730471306577
0.24,-0.98,-0.01621209936353872
0.26,-0.98,-0.12854582894854152
0.28,-0.98,-0.23885231402146975
0.30000000000000004,-0.98,-0.3453919554188231
0.32000000000000006,-0.98,-0.44648455935206843
0.3400000000000001,-0.98,-0.5405358350673841
0.3600000000000001,-0.98,-0.626062537763231
0.3800000000000001,-0.98,-0.7017158602469196
0.40000000000000013,-0.98,-0.7663027044297781
0.41999999999999993,-0.98,-0.8188044971967322
0.43999999999999995,-0.98,-0.8583932539127959
0.45999999999999996,-0.98,-0.8844446362353803
0.48,-0.98,-0.8965477983029168
0.5,-0.98,-0.8945118660195217
0.52,-0.98,-0.8783689472535112
0.54,-0.98,-0.8483736254771375
0.56,-0.98,-0.8049989448331507
0.5800000000000001,-0.98,-0.7489289499460849
0.6000000000000001,-0.98,-0.6810478981299004
0.6200000000000001,-0.98,-0.6024263141219134
0.6400000000000001,-0.98,-0.5143041072681872
0.6600000000000001,-0.98,-0.4180710174124603
0.6799999999999999,-0.98,-0.31524469786861853
0.7,-0.98,-0.20744678112133416
0.72,-0.98,-0.09637730471306598
0.74,-0.98,0.016212099363538526
0.76,-0.98,0.12854582894854139
0.78,-0.98,0.23885231402146953
0.8,-0.98,0.345391955418823
0.8200000000000001,-0.98,0.44648455935206827
0.8400000000000001,-0.98,0.5405358350673841
0.8600000000000001,-0.98,0.626062537763231
0.8800000000000001,-0.98,0.7017158602469195
0.9000000000000001,-0.98,0.7663027044297779
0.9199999999999999,-0.98,0.8188044971967322
0.94,-0.98,0.8583932539127961
0.96,-0.98,0.8844446362353804
0.98,-0.98,0.8965477983029169
1.0,-0.98,0.8945118660195216

-1.0,-0.96,0.8653786905898031
-0.98,-0.96,0.8483736254771376
-0.96,-0.96,0.817989201496859
-0.94,-0.96,0.7747045991659114
-0.92,-0.96,0.7192024425200219
-0.9,-0.96,0.6523580337248776
-0.88,-0.96,0.5752255490380921
-0.86,-0.96,0.48902141381988906
-0.84,-0.96,0.39510511877851384
-0.8200000000000001,-0.96,0.2949577799896436
-0.8,-0.96,0.19015878081109971
-0.78,-0.96,0.08236086406381518
-0.76,-0.96,-0.0267359327097512
-0.74,-0.96,-0.1354110878532128
-0.72,-0.96,-0.24195072925056607
-0.7,-0.96,-0.34467466311327816
-0.6799999999999999,-0.96,-0.4419628716400303
-0.6599999999999999,-0.96,-0.532281061665197
-0.64,-0.96,-0.6142048613786101
-0.62,-0.96,-0.6864422835198826
-0.6,-0.96,-0.7478541007893033
-0.5800000000000001,-0.96,-0.7974718121428911
-0.56,-0.96,-0.8345129166324161
-0.54,-0.96,-0.8583932539127954
-0.52,-0.96,-0.8687362167996955
-0.5,-0.96,-0.8653786905898031
-0.48,-0.96,-0.8483736254771377
-0.45999999999999996,-0.96,-0.8179892014968589
-0.43999999999999995,-0.96,-0.7747045991659114
-0.42000000000000004,-0.96,-0.7192024425200221
-0.4,-0.96,-0.6523580337248776
-0.38,-0.96,-0.5752255490380922
-0.36,-0.96,-0.4890214138198891
-0.33999999999999997,-0.96,-0.39510511877851373
-0.31999999999999995,-0.96,-0.2949577799896436
-0.29999999999999993,-0.96,-0.19015878081109955
-0.28,-0.96,-0.08236086406381507
-0.26,-0.96,0.026735932709751234
-0.24,-0.96,0.13541108785321274
-0.21999999999999997,-0.96,0.24195072925056604
-0.19999999999999996,-0.96,0.3446746631132781
-0.17999999999999994,-0.96,0.4419628716400303
-0.16000000000000003,-0.96,0.532281061665197
-0.14,-0.96,0.61420486137861
-0.12,-0.96,0.6864422835198826
-0.09999999999999998,-0.96,0.7478541007893031
-0.07999999999999996,-0.96,0.797471812142891
-0.05999999999999994,-0.96,0.8345129166324161
-0.040000000000000036,-0.96,0.8583932539127955
-0.020000000000000018,-0.96,0.8687362167996956
0.0,-0.96,0.8653786905898031
0.020000000000000018,-0.96,0.8483736254771376
0.040000000000000036,-0.96,0.8179892014968588
0.06000000000000005,-0.96,0.7747045991659113
0.08000000000000007,-0.96,0.7192024425200219
0.10000000000000009,-0.96,0.6523580337248774
0.1200000000000001,-0.96,0.575225549038092
0.14000000000000012,-0.96,0.489021413819889
0.15999999999999992,-0.96,0.3951051187785135
0.17999999999999994,-0.96,0.29495777998964334
0.19999999999999996,-0.96,0.19015878081109946
0.21999999999999997,-0.96,0.08236086406381501
0.24,-0.96,-0.02673593270975124
0.26,-0.96,-0.13541108785321274
0.28,-0.96,-0.24195072925056602
0.30000000000000004,-0.96,-0.3446746631132781
0.32000000000000006,-0.96,-0.4419628716400303
0.3400000000000001,-0.96,-0.532281061665197
0.3600000000000001,-0.96,-0.6142048613786101
0.3800000000000001,-0.96,-0.6864422835198827
0.40000000000000013,-0.96,-0.7478541007893033
0.41999999999999993,-0.96,-0.7974718121428909
0.43999999999999995,-0.96,-0.8345129166324161
0.45999999999999996,-0.96,-0.8583932539127954
0.48,-0.96,-0.8687362167996956
0.5,-0.96,-0.8653786905898031
0.52,-0.96,-0.8483736254771376
0.54,-0.96,-0.8179892014968588
0.56,-0.96,-0.7747045991659113
0.5800000000000001,-0.96,-0.7192024425200219
0.6000000000000001,-0.96,-0.6523580337248776
0.6200000000000001,-0.96,-0.5752255490380919
0.6400000000000001,-0.96,-0.4890214138198889
0.6600000000000001,-0.96,-0.39510511877851356
0.6799999999999999,-0.96,-0.29495777998964356
0.7,-0.96,-0.19015878081109966
0.72,-0.96,-0.08236086406381521
0.74,-0.96,0.026735932709751088
0.76,-0.96,0.13541108785321254
0.78,-0.96,0.2419507292505659
0.8,-0.96,0.34467466311327793
0.8200000000000001,-0.96,0.44196287164003023
0.8400000000000001,-0.96,0.532281061665197
0.8600000000000001,-0.96,0.6142048613786099
0.8800000000000001,-0.96,0.6864422835198827
0.9000000000000001,-0.96,0.7478541007893031
0.9199999999999999,-0.96,0.7974718121428912
0.94,-0.96,0.8345129166324161
0.96,-0.96,0.8583932539127955
0.98,-0.96,0.8687362167996955
1.0,-0.96,0.8653786905898031

-1.0,-0.94,0.8225979762573113
-0.98,-0.94,0.8049989448331509
-0.96,-0.94,0.7747045991659114
-0.94,-0.94,0.7321926991837299
-0.92,-0.94,0.6781336829447038
-0.9,-0.94,0.6133800934282133
-0.88,-0.94,0.5389531334228531
-0.86,-0.94,0.45602656054841856
-0.84,-0.94,0.3659081763970724
-0.8200000000000001,-0.94,0.27001920172099486
-0.8,-0.94,0.16987186293212472
-0.78,-0.94,0.0670455433882827
-0.76,-0.94,-0.03683812442585889
-0.74,-0.94,-0.1401408330117758
-0.72,-0.94,-0.2412334369450212
-0.7,-0.94,-0.33852164547177327
-0.6799999999999999,-0.94,-0.43047116542640673
-0.6599999999999999,-0.94,-0.5156318979512562
-0.64,-0.94,-0.5926608074218488
-0.62,-0.94,-0.6603431019209935
-0.6,-0.94,-0.7176113912329958
-0.5800000000000001,-0.94,-0.7635625202249874
-0.56,-0.94,-0.7974718121428906
-0.54,-0.94,-0.8188044971967314
-0.52,-0.94,-0.8272241461996821
-0.5,-0.94,-0.8225979762573113
-0.48,-0.94,-0.8049989448331507
-0.45999999999999996,-0.94,-0.7747045991659113
-0.43999999999999995,-0.94,-0.7321926991837301
-0.42000000000000004,-0.94,-0.6781336829447038
-0.4,-0.94,-0.6133800934282134
-0.38,-0.94,-0.5389531334228532
-0.36,-0.94,-0.4560265605484185
-0.33999999999999997,-0.94,-0.36590817639707235
-0.31999999999999995,-0.94,-0.27001920172099475
-0.29999999999999993,-0.94,-0.16987186293212458
-0.28,-0.94,-0.06704554338828259
-0.26,-0.94,0.03683812442585894
-0.24,-0.94,0.1401408330117758
-0.21999999999999997,-0.94,0.24123343694502108
-0.19999999999999996,-0.94,0.3385216454717733
-0.17999999999999994,-0.94,0.43047116542640673
-0.16000000000000003,-0.94,0.515631897951256
-0.14,-0.94,0.5926608074218488
-0.12,-0.94,0.6603431019209934
-0.09999999999999998,-0.94,0.7176113912329957
-0.07999999999999996,-0.94,0.7635625202249874
-0.05999999999999994,-0.94,0.7974718121428906
-0.040000000000000036,-0.94,0.8188044971967315
-0.020000000000000018,-0.94,0.827224146199682
0.0,-0.94,0.8225979762573115
0.020000000000000018,-0.94,0.8049989448331507
0.040000000000000036,-0.94,0.7747045991659112
0.06000000000000005,-0.94,0.7321926991837299
0.08000000000000007,-0.94,0.6781336829447038
0.10000000000000009,-0.94,0.6133800934282133
0.1200000000000001,-0.94,0.5389531334228531
0.14000000000000012,-0.94,0.45602656054841834
0.15999999999999992,-0.94,0.3659081763970721
0.17999999999999994,-0.94,0.2700192017209946
0.19999999999999996,-0.94,0.1698718629321245
0.21999999999999997,-0.94,0.06704554338828256
0.24,-0.94,-0.03683812442585893
0.26,-0.94,-0.14014083301177577
0.28,-0.94,-0.2412334369450211
0.30000000000000004,-0.94,-0.33852164547177327
0.32000000000000006,-0.94,-0.43047116542640673
0.3400000000000001,-0.94,-0.5156318979512563
0.3600000000000001,-0.94,-0.5926608074218488
0.3800000000000001,-0.94,-0.6603431019209935
0.40000000000000013,-0.94,-0.7176113912329956
0.41999999999999993,-0.94,-0.7635625202249874
0.43999999999999995,-0.94,-0.7974718121428905
0.45999999999999996,-0.94,-0.8188044971967315
0.48,-0.94,-0.827224146199682
0.5,-0.94,-0.8225979762573113
0.52,-0.94,-0.8049989448331508
0.54,-0.94,-0.7747045991659112
0.56,-0.94,-0.7321926991837299
0.5800000000000001,-0.94,-0.6781336829447039
0.6000000000000001,-0.94,-0.6133800934282132
0.6200000000000001,-0.94,-0.538953133422853
0.6400000000000001,-0.94,-0.45602656054841834
0.6600000000000001,-0.94,-0.36590817639707224
0.6799999999999999,-0.94,-0.2700192017209948
0.7,-0.94,-0.16987186293212472
0.72,-0.94,-0.06704554338828272
0.74,-0.94,0.036838124425858744
0.76,-0.94,0.14014083301177563
0.78,-0.94,0.24123343694502097
0.8,-0.94,0.3385216454717732
0.8200000000000001,-0.94,0.4304711654264066
0.8400000000000001,-0.94,0.515631897951256
0.8600000000000001,-0.94,0.5926608074218488
0.8800000000000001,-0.94,0.6603431019209934
0.9000000000000001,-0.94,0.7176113912329959
0.9199999999999999,-0.94,0.7635625202249873
0.94,-0.94,0.7974718121428908
0.96,-0.94,0.8188044971967314
0.98,-0.94,0.827224146199682
1.0,-0.94,0.8225979762573113

-1.0,-0.92,0.7668444004430297
-0.98,-0.92,0.7489289499460849
-0.96,-0.92,0.7192024425200219
-0.94,-0.92,0.6781336829447038
-0.92,-0.92,0.6263703500919214
-0.9,-0.92,0.5647287826426794
-0.88,-0.92,0.49418110493853995
-0.86,-0.92,0.4158398960000366
-0.84,-0.92,0.3309406434908997
-0.8200000000000001,-0.92,0.24082225933955356
-0.8,-0.92,0.146905964298178
-0.78,-0.92,0.050672874442450756
-0.76,-0.92,-0.04635935691374192
-0.74,-0.92,-0.14266047351766736
-0.72,-0.92,-0.2367117492329831
-0.7,-0.92,-0.32702993925814977
-0.6799999999999999,-0.92,-0.41219067178299923
-0.6599999999999999,-0.92,-0.4908509111830586
-0.64,-0.92,-0.5617701384936397
-0.62,-0.92,-0.623829915134962
-0.6,-0.92,-0.6760515213566779
-0.5800000000000001,-0.92,-0.7176113912329956
-0.56,-0.92,-0.7478541007893028
-0.54,-0.92,-0.7663027044297774
-0.52,-0.92,-0.7726662566543473
-0.5,-0.92,-0.7668444004430295
-0.48,-0.92,-0.7489289499460849
-0.45999999999999996,-0.92,-0.7192024425200219
-0.43999999999999995,-0.92,-0.6781336829447038
-0.42000000000000004,-0.92,-0.6263703500919214
-0.4,-0.92,-0.5647287826426794
-0.38,-0.92,-0.4941811049385399
-0.36,-0.92,-0.4158398960000366
-0.33999999999999997,-0.92,-0.33094064349089963
-0.31999999999999995,-0.92,-0.2408222593395534
-0.29999999999999993,-0.92,-0.14690596429817787
-0.28,-0.92,-0.05067287444245065
-0.26,-0.92,0.04635935691374195
-0.24,-0.92,0.14266047351766734
-0.21999999999999997,-0.92,0.23671174923298305
-0.19999999999999996,-0.92,0.32702993925814977
-0.17999999999999994,-0.92,0.4121906717829991
-0.16000000000000003,-0.92,0.49085091118305857
-0.14,-0.92,0.5617701384936397
-0.12,-0.92,0.6238299151349619
-0.09999999999999998,-0.92,0.6760515213566779
-0.07999999999999996,-0.92,0.7176113912329956
-0.05999999999999994,-0.92,0.7478541007893029
-0.040000000000000036,-0.92,0.7663027044297773
-0.020000000000000018,-0.92,0.7726662566543474
0.0,-0.92,0.7668444004430295
0.020000000000000018,-0.92,0.7489289499460848
0.040000000000000036,-0.92,0.7192024425200217
0.06000000000000005,-0.92,0.6781336829447037
0.08000000000000007,-0.92,0.6263703500919213
0.10000000000000009,-0.92,0.5647287826426792
0.1200000000000001,-0.92,0.49418110493853973
0.14000000000000012,-0.92,0.4158398960000364
0.15999999999999992,-0.92,0.3309406434908994
0.17999999999999994,-0.92,0.2408222593395533
0.19999999999999996,-0.92,0.1469059642981778
0.21999999999999997,-0.92,0.05067287444245064
0.24,-0.92,-0.04635935691374193
0.26,-0.92,-0.14266047351766734
0.28,-0.92,-0.23671174923298305
0.30000000000000004,-0.92,-0.3270299392581497
0.32000000000000006,-0.92,-0.4121906717829993
0.3400000000000001,-0.92,-0.4908509111830587
0.3600000000000001,-0.92,-0.5617701384936399
0.3800000000000001,-0.92,-0.6238299151349618
0.40000000000000013,-0.92,-0.6760515213566779
0.41999999999999993,-0.92,-0.7176113912329956
0.43999999999999995,-0.92,-0.7478541007893028
0.45999999999999996,-0.92,-0.7663027044297772
0.48,-0.92,-0.7726662566543474
0.5,-0.92,-0.7668444004430295
0.52,-0.92,-0.7489289499460849
0.54,-0.92,-0.7192024425200217
0.56,-0.92,-0.6781336829447038
0.5800000000000001,-0.92,-0.6263703500919213
0.6000000000000001,-0.92,-0.5647287826426791
0.6200000000000001,-0.92,-0.4941811049385398
0.6400000000000001,-0.92,-0.41583989600003646
0.6600000000000001,-0.92,-0.33094064349089963
0.6799999999999999,-0.92,-0.2408222593395535
0.7,-0.92,-0.14690596429817798
0.72,-0.92,-0.050672874442450826
0.74,-0.92,0.04635935691374178
0.76,-0.92,0.1426604735176672
0.78,-0.92,0.23671174923298294
0.8,-0.92,0.32702993925814966
0.8200000000000001,-0.92,0.4121906717829991
0.8400000000000001,-0.92,0.49085091118305857
0.8600000000000001,-0.92,0.5617701384936398
0.8800000000000001,-0.92,0.6238299151349621
0.9000000000000001,-0.92,0.6760515213566778
0.9199999999999999,-0.92,0.7176113912329957
0.94,-0.92,0.7478541007893028
0.96,-0.92,0.7663027044297773
0.98,-0.92,0.7726662566543474
1.0,-0.92,0.7668444004430297

-1.0,-0.9,0.6989972303431209
-0.98,-0.9,0.6810478981299004
-0.96,-0.9,0.6523580337248776
-0.94,-0.9,0.6133800934282134
-0.92,-0.9,0.5647287826426794
-0.9,-0.9,0.5071713616022481
-0.88,-0.9,0.4416155452198629
-0.86,-0.9,0.3690951878810211
-0.84,-0.9,0.29075397894251787
-0.8200000000000001,-0.9,0.20782740606808298
-0.8,-0.9,0.12162327084987974
-0.78,-0.9,0.03350106399615342
-0.76,-0.9,-0.05514947464935775
-0.74,-0.9,-0.14293027313494927
-0.72,-0.9,-0.22845697583079608
-0.7,-0.9,-0.310380775544209
-0.6799999999999999,-0.9,-0.3874096850148018
-0.6599999999999999,-0.9,-0.4583289123253828
-0.64,-0.9,-0.5220200188961718
-0.62,-0.9,-0.5774785579293242
-0.6,-0.9,-0.6238299151349619
-0.5800000000000001,-0.9,-0.6603431019209934
-0.56,-0.9,-0.6864422835198823
-0.54,-0.9,-0.7017158602469189
-0.52,-0.9,-0.7059229586731248
-0.5,-0.9,-0.6989972303431208
-0.48,-0.9,-0.6810478981299005
-0.45999999999999996,-0.9,-0.6523580337248774
-0.43999999999999995,-0.9,-0.6133800934282134
-0.42000000000000004,-0.9,-0.5647287826426794
-0.4,-0.9,-0.5071713616022481
-0.38,-0.9,-0.44161554521986296
-0.36,-0.9,-0.3690951878810211
-0.33999999999999997,-0.9,-0.2907539789425177
-0.31999999999999995,-0.9,-0.2078274060680828
-0.29999999999999993,-0.9,-0.12162327084987955
-0.28,-0.9,-0.033501063996153366
-0.26,-0.9,0.05514947464935778
-0.24,-0.9,0.14293027313494927
-0.21999999999999997,-0.9,0.22845697583079608
-0.19999999999999996,-0.9,0.3103807755442089
-0.17999999999999994,-0.9,0.3874096850148016
-0.16000000000000003,-0.9,0.45832891232538275
-0.14,-0.9,0.5220200188961716
-0.12,-0.9,0.5774785579293242
-0.09999999999999998,-0.9,0.6238299151349618
-0.07999999999999996,-0.9,0.6603431019209934
-0.05999999999999994,-0.9,0.6864422835198822
-0.040000000000000036,-0.9,0.7017158602469189
-0.020000000000000018,-0.9,0.7059229586731249
0.0,-0.9,0.6989972303431208
0.020000000000000018,-0.9,0.6810478981299005
0.040000000000000036,-0.9,0.6523580337248773
0.06000000000000005,-0.9,0.6133800934282134
0.08000000000000007,-0.9,0.5647287826426793
0.10000000000000009,-0.9,0.5071713616022478
0.1200000000000001,-0.9,0.4416155452198628
0.14000000000000012,-0.9,0.3690951878810209
0.15999999999999992,-0.9,0.2907539789425176
0.17999999999999994,-0.9,0.20782740606808273
0.19999999999999996,-0.9,0.12162327084987953
0.21999999999999997,-0.9,0.03350106399615333
0.24,-0.9,-0.05514947464935777
0.26,-0.9,-0.14293027313494922
0.28,-0.9,-0.228456975830796
0.30000000000000004,-0.9,-0.310380775544209
0.32000000000000006,-0.9,-0.3874096850148018
0.3400000000000001,-0.9,-0.45832891232538286
0.3600000000000001,-0.9,-0.5220200188961716
0.3800000000000001,-0.9,-0.5774785579293242
0.40000000000000013,-0.9,-0.6238299151349619
0.41999999999999993,-0.9,-0.6603431019209933
0.43999999999999995,-0.9,-0.6864422835198822
0.45999999999999996,-0.9,-0.701715860246919
0.48,-0.9,-0.7059229586731249
0.5,-0.9,-0.6989972303431209
0.52,-0.9,-0.6810478981299003
0.54,-0.9,-0.6523580337248774
0.56,-0.9,-0.6133800934282132
0.5800000000000001,-0.9,-0.5647287826426791
0.6000000000000001,-0.9,-0.507171361602248
0.6200000000000001,-0.9,-0.44161554521986274
0.6400000000000001,-0.9,-0.36909518788102097
0.6600000000000001,-0.9,-0.2907539789425177
0.6799999999999999,-0.9,-0.20782740606808286
0.7,-0.9,-0.1216232708498797
0.72,-0.9,-0.03350106399615351
0.74,-0.9,0.055149474649357655
0.76,-0.9,0.14293027313494913
0.78,-0.9,0.22845697583079597
0.8,-0.9,0.3103807755442089
0.8200000000000001,-0.9,0.38740968501480166
0.8400000000000001,-0.9,0.45832891232538286
0.8600000000000001,-0.9,0.5220200188961719
0.8800000000000001,-0.9,0.577478557929324
0.9000000000000001,-0.9,0.6238299151349619
0.9199999999999999,-0.9,0.6603431019209934
0.94,-0.9,0.6864422835198822
0.96,-0.9,0.7017158602469189
0.98,-0.9,0.705922958673125
1.0,-0.9,0.6989972303431209

-1.0,-0.88,0.6201264563599957
-0.98,-0.88,0.6024263141219135
-0.96,-0.88,0.5752255490380922
-0.94,-0.88,0.5389531334228532
-0.92,-0.88,0.49418110493853995
-0.9,-0.88,0.44161554521986285
-0.88,-0.88,0.38208544454472915
-0.86,-0.88,0.3165296281623441
-0.84,-0.88,0.24598195045820442
-0.8200000000000001,-0.88,0.1715549904528441
-0.8,-0.88,0.09442250576605844
-0.78,-0.88,0.015800921758071212
-0.76,-0.88,-0.06306985222505401
-0.74,-0.88,-0.14094597696248656
-0.72,-0.88,-0.21659929944617523
-0.7,-0.88,-0.28883672158744805
-0.6799999999999999,-0.88,-0.3565190160865927
-0.6599999999999999,-0.88,-0.4185787927279149
-0.64,-0.88,-0.47403733176106727
-0.62,-0.88,-0.5220200188961717
-0.6,-0.88,-0.5617701384936399
-0.5800000000000001,-0.88,-0.5926608074218487
-0.56,-0.88,-0.6142048613786095
-0.54,-0.88,-0.62606253776323
-0.52,-0.88,-0.6280468339356923
-0.5,-0.88,-0.6201264563599957
-0.48,-0.88,-0.6024263141219134
-0.45999999999999996,-0.88,-0.5752255490380922
-0.43999999999999995,-0.88,-0.5389531334228532
-0.42000000000000004,-0.88,-0.4941811049385399
-0.4,-0.88,-0.4416155452198629
-0.38,-0.88,-0.3820854445447292
-0.36,-0.88,-0.31652962816234403
-0.33999999999999997,-0.88,-0.24598195045820428
-0.31999999999999995,-0.88,-0.1715549904528439
-0.29999999999999993,-0.88,-0.09442250576605836
-0.28,-0.88,-0.01580092175807113
-0.26,-0.88,0.06306985222505403
-0.24,-0.88,0.14094597696248656
-0.21999999999999997,-0.88,0.21659929944617515
-0.19999999999999996,-0.88,0.28883672158744794
-0.17999999999999994,-0.88,0.35651901608659264
-0.16000000000000003,-0.88,0.4185787927279147
-0.14,-0.88,0.4740373317610672
-0.12,-0.88,0.5220200188961717
-0.09999999999999998,-0.88,0.5617701384936398
-0.07999999999999996,-0.88,0.5926608074218485
-0.05999999999999994,-0.88,0.6142048613786096
-0.040000000000000036,-0.88,0.6260625377632302
-0.020000000000000018,-0.88,0.6280468339356923
0.0,-0.88,0.6201264563599959
0.020000000000000018,-0.88,0.6024263141219133
0.040000000000000036,-0.88,0.5752255490380922
0.06000000000000005,-0.88,0.5389531334228532
0.08000000000000007,-0.88,0.49418110493853984
0.10000000000000009,-0.88,0.4416155452198629
0.1200000000000001,-0.88,0.3820854445447291
0.14000000000000012,-0.88,0.3165296281623439
0.15999999999999992,-0.88,0.2459819504582042
0.17999999999999994,-0.88,0.17155499045284386
0.19999999999999996,-0.88,0.09442250576605828
0.21999999999999997,-0.88,0.01580092175807113
0.24,-0.88,-0.06306985222505399
0.26,-0.88,-0.1409459769624865
0.28,-0.88,-0.21659929944617518
0.30000000000000004,-0.88,-0.288836721587448
0.32000000000000006,-0.88,-0.35651901608659264
0.3400000000000001,-0.88,-0.4185787927279148
0.3600000000000001,-0.88,-0.47403733176106727
0.3800000000000001,-0.88,-0.5220200188961717
0.40000000000000013,-0.88,-0.5617701384936397
0.41999999999999993,-0.88,-0.5926608074218486
0.43999999999999995,-0.88,-0.6142048613786096
0.45999999999999996,-0.88,-0.6260625377632301
0.48,-0.88,-0.6280468339356923
0.5,-0.88,-0.6201264563599957
0.52,-0.88,-0.6024263141219134
0.54,-0.88,-0.5752255490380921
0.56,-0.88,-0.538953133422853
0.5800000000000001,-0.88,-0.4941811049385398
0.6000000000000001,-0.88,-0.4416155452198628
0.6200000000000001,-0.88,-0.38208544454472904
0.6400000000000001,-0.88,-0.316529628162344
0.6600000000000001,-0.88,-0.24598195045820428
0.6799999999999999,-0.88,-0.171554990452844
0.7,-0.88,-0.09442250576605848
0.72,-0.88,-0.015800921758071247
0.74,-0.88,0.06306985222505389
0.76,-0.88,0.1409459769624864
0.78,-0.88,0.21659929944617512
0.8,-0.88,0.28883672158744794
0.8200000000000001,-0.88,0.3565190160865927
0.8400000000000001,-0.88,0.4185787927279149
0.8600000000000001,-0.88,0.47403733176106716
0.8800000000000001,-0.88,0.5220200188961717
0.9000000000000001,-0.88,0.5617701384936398
0.9199999999999999,-0.88,0.5926608074218486
0.94,-0.88,0.6142048613786095
0.96,-0.88,0.6260625377632302
0.98,-0.88,0.6280468339356924
1.0,-0.88,0.6201264563599957

-1.0,-0.86,0.5314759177144849
-0.98,-0.86,0.5143041072681875
-0.96,-0.86,0.4890214138198892
-0.94,-0.86,0.45602656054841856
-0.92,-0.86,0.4158398960000365
-0.9,-0.86,0.3690951878810211
-0.88,-0.86,0.31652962816234403
-0.86,-0.86,0.25897220712191255
-0.84,-0.86,0.19733063967267048
-0.8200000000000001,-0.86,0.13257705015617993
-0.8,-0.86,0.06573264136103561
-0.78,-0.86,-0.0021484104551489913
-0.76,-0.86,-0.06999558055505768
-0.74,-0.86,-0.13673887853627997
-0.72,-0.86,-0.2013257227191385
-0.7,-0.86,-0.2627375399885589
-0.6799999999999999,-0.86,-0.3200058293005612
-0.6599999999999999,-0.86,-0.37222743552227705
-0.64,-0.86,-0.4185787927279149
-0.62,-0.86,-0.458328912325383
-0.6,-0.86,-0.4908509111830587
-0.5800000000000001,-0.86,-0.515631897951256
-0.56,-0.86,-0.5322810616651965
-0.54,-0.86,-0.5405358350673833
-0.52,-0.86,-0.540266035450101
-0.5,-0.86,-0.5314759177144849
-0.48,-0.86,-0.5143041072681875
-0.45999999999999996,-0.86,-0.4890214138198891
-0.43999999999999995,-0.86,-0.4560265605484185
-0.42000000000000004,-0.86,-0.4158398960000366
-0.4,-0.86,-0.36909518788102114
-0.38,-0.86,-0.3165296281623441
-0.36,-0.86,-0.25897220712191243
-0.33999999999999997,-0.86,-0.1973306396726703
-0.31999999999999995,-0.86,-0.13257705015617988
-0.29999999999999993,-0.86,-0.06573264136103549
-0.28,-0.86,0.002148410455149038
-0.26,-0.86,0.0699955805550577
-0.24,-0.86,0.13673887853627997
-0.21999999999999997,-0.86,0.20132572271913846
-0.19999999999999996,-0.86,0.26273753998855887
-0.17999999999999994,-0.86,0.3200058293005611
-0.16000000000000003,-0.86,0.37222743552227705
-0.14,-0.86,0.4185787927279148
-0.12,-0.86,0.45832891232538286
-0.09999999999999998,-0.86,0.49085091118305846
-0.07999999999999996,-0.86,0.515631897951256
-0.05999999999999994,-0.86,0.5322810616651966
-0.040000000000000036,-0.86,0.5405358350673832
-0.020000000000000018,-0.86,0.540266035450101
0.0,-0.86,0.5314759177144848
0.020000000000000018,-0.86,0.5143041072681875
0.040000000000000036,-0.86,0.4890214138198892
0.06000000000000005,-0.86,0.45602656054841856
0.08000000000000007,-0.86,0.4158398960000366
0.10000000000000009,-0.86,0.369095187881021
0.1200000000000001,-0.86,0.316529628162344
0.14000000000000012,-0.86,0.2589722071219124
0.15999999999999992,-0.86,0.19733063967267028
0.17999999999999994,-0.86,0.13257705015617977
0.19999999999999996,-0.86,0.06573264136103547
0.21999999999999997,-0.86,-0.002148410455149026
0.24,-0.86,-0.06999558055505765
0.26,-0.86,-0.13673887853627997
0.28,-0.86,-0.20132572271913848
0.30000000000000004,-0.86,-0.2627375399885589
0.32000000000000006,-0.86,-0.32000582930056115
0.3400000000000001,-0.86,-0.37222743552227716
0.3600000000000001,-0.86,-0.4185787927279149
0.3800000000000001,-0.86,-0.4583289123253829
0.40000000000000013,-0.86,-0.49085091118305846
0.41999999999999993,-0.86,-0.5156318979512559