TITLE = "Solution" 
VARIABLES = "x", "y", "sol" 
ZONE STRANDID=1, SOLUTIONTIME= 0.7800000000000005, I= 101, J =101, DATAPACKING=POINT 
-1.0,-1.0,0.7345361440614712
-0.98,-1.0,0.7518132274414262
-0.96,-1.0,0.7572337671131766
-0.94,-1.0,0.7507122779280256
-0.92,-1.0,0.732351607666173
-0.9,-1.0,0.7024413150657801
-0.88,-1.0,0.661453103308698
-0.86,-1.0,0.6100333809795068
-0.84,-1.0,0.5489930678159908
-0.8200000000000001,-1.0,0.4792948060204543
-0.8,-1.0,0.402037778817137
-0.78,-1.0,0.3184403756761454
-0.76,-1.0,0.2298209775836814
-0.74,-1.0,0.13757716538632514
-0.72,-1.0,0.04316367910621155
-0.7,-1.0,-0.051930524178139356
-0.6799999999999999,-1.0,-0.14620575207440956
-0.6599999999999999,-1.0,-0.2381752279213836
-0.64,-1.0,-0.3263885381450531
-0.62,-1.0,-0.40945450614711315
-0.6,-1.0,-0.4860631319909675
-0.5800000000000001,-1.0,-0.5550062518832833
-0.56,-1.0,-0.6151965916387352
-0.54,-1.0,-0.6656849136434135
-0.52,-1.0,-0.7056749868990433
-0.5,-1.0,-0.7345361440614712
-0.48,-1.0,-0.7518132274414261
-0.45999999999999996,-1.0,-0.7572337671131766
-0.43999999999999995,-1.0,-0.7507122779280258
-0.42000000000000004,-1.0,-0.7323516076661731
-0.4,-1.0,-0.7024413150657802
-0.38,-1.0,-0.6614531033086981
-0.36,-1.0,-0.6100333809795068
-0.33999999999999997,-1.0,-0.5489930678159906
-0.31999999999999995,-1.0,-0.4792948060204543
-0.29999999999999993,-1.0,-0.40203777881713704
-0.28,-1.0,-0.3184403756761455
-0.26,-1.0,-0.22982097758368147
-0.24,-1.0,-0.13757716538632517
-0.21999999999999997,-1.0,-0.04316367910621144
-0.19999999999999996,-1.0,0.05193052417813933
-0.17999999999999994,-1.0,0.14620575207440967
-0.16000000000000003,-1.0,0.23817522792138368
-0.14,-1.0,0.3263885381450533
-0.12,-1.0,0.4094545061471134
-0.09999999999999998,-1.0,0.48606313199096735
-0.07999999999999996,-1.0,0.5550062518832836
-0.05999999999999994,-1.0,0.6151965916387353
-0.040000000000000036,-1.0,0.6656849136434138
-0.020000000000000018,-1.0,0.7056749868990434
0.0,-1.0,0.7345361440614713
0.020000000000000018,-1.0,0.7518132274414261
0.040000000000000036,-1.0,0.7572337671131767
0.06000000000000005,-1.0,0.7507122779280256
0.08000000000000007,-1.0,0.7323516076661731
0.10000000000000009,-1.0,0.7024413150657804
0.1200000000000001,-1.0,0.661453103308698
0.14000000000000012,-1.0,0.6100333809795065
0.15999999999999992,-1.0,0.5489930678159908
0.17999999999999994,-1.0,0.47929480602045427
0.19999999999999996,-1.0,0.402037778817137
0.21999999999999997,-1.0,0.3184403756761456
0.24,-1.0,0.2298209775836814
0.26,-1.0,0.1375771653863251
0.28,-1.0,0.04316367910621141
0.30000000000000004,-1.0,-0.0519305241781394
0.32000000000000006,-1.0,-0.14620575207440958
0.3400000000000001,-1.0,-0.23817522792138365
0.3600000000000001,-1.0,-0.32638853814505314
0.3800000000000001,-1.0,-0.4094545061471132
0.40000000000000013,-1.0,-0.48606313199096746
0.41999999999999993,-1.0,-0.5550062518832831
0.43999999999999995,-1.0,-0.6151965916387352
0.45999999999999996,-1.0,-0.665684913643414
0.48,-1.0,-0.7056749868990434
0.5,-1.0,-0.7345361440614713
0.52,-1.0,-0.7518132274414259
0.54,-1.0,-0.7572337671131766
0.56,-1.0,-0.7507122779280258
0.5800000000000001,-1.0,-0.7323516076661731
0.6000000000000001,-1.0,-0.7024413150657804
0.6200000000000001,-1.0,-0.6614531033086982
0.6400000000000001,-1.0,-0.6100333809795065
0.6600000000000001,-1.0,-0.5489930678159907
0.6799999999999999,-1.0,-0.4792948060204544
0.7,-1.0,-0.40203777881713687
0.72,-1.0,-0.31844037567614547
0.74,-1.0,-0.22982097758368134
0.76,-1.0,-0.137577165386325
0.78,-1.0,-0.043163679106211356
0.8,-1.0,0.05193052417813945
0.8200000000000001,-1.0,0.14620575207440953
0.8400000000000001,-1.0,0.23817522792138365
0.8600000000000001,-1.0,0.3263885381450532
0.8800000000000001,-1.0,0.40945450614711326
0.9000000000000001,-1.0,0.48606313199096746
0.9199999999999999,-1.0,0.5550062518832835
0.94,-1.0,0.6151965916387352
0.96,-1.0,0.6656849136434136
0.98,-1.0,0.7056749868990434
1.0,-1.0,0.7345361440614712

-1.0,-0.98,0.7518132274414262
-0.98,-0.98,0.765705251774583
-0.96,-0.98,0.7675216468771084
-0.94,-0.98,0.7572337671131744
-0.92,-0.98,0.7350038584923396
-0.9,-0.98,0.7011824999530583
-0.88,-0.98,0.6563030745233952
-0.86,-0.98,0.601073357552045
-0.84,-0.98,0.5363643546682798
-0.8200000000000001,-0.98,0.4631965655028616
-0.8,-0.98,0.3827238897992469
-0.78,-0.98,0.29621542972532866
-0.76,-0.98,0.20503547537412112
-0.74,-0.98,0.11062198909400764
-0.72,-0.98,0.014463927963508183
-0.7,-0.98,-0.08192223795130756
-0.6799999999999999,-0.98,-0.17701644123565843
-0.6599999999999999,-0.98,-0.26931898949722693
-0.64,-0.98,-0.3573742164110581
-0.62,-0.98,-0.43979343844707813
-0.6,-0.98,-0.5152768552389221
-0.5800000000000001,-0.98,-0.5826340482121748
-0.56,-0.98,-0.6408027541964115
-0.54,-0.98,-0.6888656179499605
-0.52,-0.98,-0.7260646594000647
-0.5,-0.98,-0.7518132274414261
-0.48,-0.98,-0.7657052517745832
-0.45999999999999996,-0.98,-0.7675216468771083
-0.43999999999999995,-0.98,-0.7572337671131745
-0.42000000000000004,-0.98,-0.7350038584923397
-0.4,-0.98,-0.7011824999530584
-0.38,-0.98,-0.6563030745233953
-0.36,-0.98,-0.6010733575520449
-0.33999999999999997,-0.98,-0.5363643546682798
-0.31999999999999995,-0.98,-0.4631965655028617
-0.29999999999999993,-0.98,-0.3827238897992471
-0.28,-0.98,-0.29621542972532877
-0.26,-0.98,-0.20503547537412123
-0.24,-0.98,-0.11062198909400757
-0.21999999999999997,-0.98,-0.014463927963508197
-0.19999999999999996,-0.98,0.08192223795130764
-0.17999999999999994,-0.98,0.17701644123565857
-0.16000000000000003,-0.98,0.2693189894972271
-0.14,-0.98,0.35737421641105827
-0.12,-0.98,0.4397934384470781
-0.09999999999999998,-0.98,0.5152768552389223
-0.07999999999999996,-0.98,0.5826340482121751
-0.05999999999999994,-0.98,0.6408027541964119
-0.040000000000000036,-0.98,0.6888656179499606
-0.020000000000000018,-0.98,0.7260646594000648
0.0,-0.98,0.7518132274414261
0.020000000000000018,-0.98,0.7657052517745832
0.040000000000000036,-0.98,0.7675216468771083
0.06000000000000005,-0.98,0.7572337671131745
0.08000000000000007,-0.98,0.73500385849234
0.10000000000000009,-0.98,0.7011824999530585
0.1200000000000001,-0.98,0.6563030745233951
0.14000000000000012,-0.98,0.601073357552045
0.15999999999999992,-0.98,0.5363643546682797
0.17999999999999994,-0.98,0.46319656550286165
0.19999999999999996,-0.98,0.3827238897992471
0.21999999999999997,-0.98,0.2962154297253287
0.24,-0.98,0.20503547537412117
0.26,-0.98,0.11062198909400754
0.28,-0.98,0.014463927963508138
0.30000000000000004,-0.98,-0.08192223795130761
0.32000000000000006,-0.98,-0.17701644123565857
0.3400000000000001,-0.98,-0.26931898949722705
0.3600000000000001,-0.98,-0.3573742164110581
0.3800000000000001,-0.98,-0.4397934384470781
0.40000000000000013,-0.98,-0.515276855238922
0.41999999999999993,-0.98,-0.5826340482121749
0.43999999999999995,-0.98,-0.6408027541964119
0.45999999999999996,-0.98,-0.6888656179499605
0.48,-0.98,-0.7260646594000649
0.5,-0.98,-0.7518132274414259
0.52,-0.98,-0.7657052517745832
0.54,-0.98,-0.7675216468771083
0.56,-0.98,-0.7572337671131746
0.5800000000000001,-0.98,-0.73500385849234
0.6000000000000001,-0.98,-0.7011824999530584
0.6200000000000001,-0.98,-0.6563030745233951
0.6400000000000001,-0.98,-0.601073357552045
0.6600000000000001,-0.98,-0.5363643546682798
0.6799999999999999,-0.98,-0.4631965655028615
0.7,-0.98,-0.38272388979924704
0.72,-0.98,-0.29621542972532855
0.74,-0.98,-0.205035475374121
0.76,-0.98,-0.11062198909400744
0.78,-0.98,-0.014463927963508086
0.8,-0.98,0.0819222379513076
0.8200000000000001,-0.98,0.17701644123565854
0.8400000000000001,-0.98,0.26931898949722705
0.8600000000000001,-0.98,0.3573742164110582
0.8800000000000001,-0.98,0.4397934384470782
0.9000000000000001,-0.98,0.5152768552389222
0.9199999999999999,-0.98,0.582634048212175
0.94,-0.98,0.6408027541964116
0.96,-0.98,0.6888656179499604
0.98,-0.98,0.7260646594000646
1.0,-0.98,0.7518132274414262

-1.0,-0.96,0.7572337671131765
-0.98,-0.96,0.7675216468771084
-0.96,-0.96,0.7657052517745804
-0.94,-0.96,0.751813227441422
-0.92,-0.96,0.7260646594000598
-0.9,-0.96,0.6888656179499549
-0.88,-0.96,0.6408027541964055
-0.86,-0.96,0.5826340482121684
-0.84,-0.96,0.515276855238916
-0.8200000000000001,-0.96,0.4397934384470724
-0.8,-0.96,0.3573742164110534
-0.78,-0.96,0.2693189894972228
-0.76,-0.96,0.1770164412356551
-0.74,-0.96,0.08192223795130435
-0.72,-0.96,-0.014463927963511317
-0.7,-0.96,-0.11062198909401079
-0.6799999999999999,-0.96,-0.2050354753741248
-0.6599999999999999,-0.96,-0.2962154297253328
-0.64,-0.96,-0.3827238897992518
-0.62,-0.96,-0.463196565502867
-0.6,-0.96,-0.5363643546682856
-0.5800000000000001,-0.96,-0.6010733575520504
-0.56,-0.96,-0.6563030745234001
-0.54,-0.96,-0.7011824999530625
-0.52,-0.96,-0.7350038584923431
-0.5,-0.96,-0.7572337671131766
-0.48,-0.96,-0.7675216468771083
-0.45999999999999996,-0.96,-0.7657052517745808
-0.43999999999999995,-0.96,-0.7518132274414222
-0.42000000000000004,-0.96,-0.7260646594000599
-0.4,-0.96,-0.6888656179499549
-0.38,-0.96,-0.6408027541964055
-0.36,-0.96,-0.5826340482121684
-0.33999999999999997,-0.96,-0.5152768552389161
-0.31999999999999995,-0.96,-0.43979343844707275
-0.29999999999999993,-0.96,-0.35737421641105355
-0.28,-0.96,-0.26931898949722305
-0.26,-0.96,-0.17701644123565508
-0.24,-0.96,-0.08192223795130435
-0.21999999999999997,-0.96,0.0144639279635114
-0.19999999999999996,-0.96,0.1106219890940109
-0.17999999999999994,-0.96,0.20503547537412492
-0.16000000000000003,-0.96,0.29621542972533293
-0.14,-0.96,0.38272388979925187
-0.12,-0.96,0.4631965655028671
-0.09999999999999998,-0.96,0.5363643546682857
-0.07999999999999996,-0.96,0.6010733575520507
-0.05999999999999994,-0.96,0.6563030745234002
-0.040000000000000036,-0.96,0.7011824999530626
-0.020000000000000018,-0.96,0.7350038584923432
0.0,-0.96,0.7572337671131767
0.020000000000000018,-0.96,0.7675216468771082
0.040000000000000036,-0.96,0.7657052517745807
0.06000000000000005,-0.96,0.7518132274414224
0.08000000000000007,-0.96,0.7260646594000599
0.10000000000000009,-0.96,0.6888656179499549
0.1200000000000001,-0.96,0.6408027541964055
0.14000000000000012,-0.96,0.5826340482121682
0.15999999999999992,-0.96,0.5152768552389161
0.17999999999999994,-0.96,0.4397934384470727
0.19999999999999996,-0.96,0.3573742164110535
0.21999999999999997,-0.96,0.269318989497223
0.24,-0.96,0.17701644123565502
0.26,-0.96,0.0819222379513043
0.28,-0.96,-0.014463927963511407
0.30000000000000004,-0.96,-0.1106219890940109
0.32000000000000006,-0.96,-0.20503547537412492
0.3400000000000001,-0.96,-0.29621542972533277
0.3600000000000001,-0.96,-0.3827238897992518
0.3800000000000001,-0.96,-0.4631965655028667
0.40000000000000013,-0.96,-0.5363643546682856
0.41999999999999993,-0.96,-0.6010733575520506
0.43999999999999995,-0.96,-0.6563030745234
0.45999999999999996,-0.96,-0.7011824999530627
0.48,-0.96,-0.7350038584923427
0.5,-0.96,-0.7572337671131765
0.52,-0.96,-0.7675216468771083
0.54,-0.96,-0.7657052517745807
0.56,-0.96,-0.7518132274414224
0.5800000000000001,-0.96,-0.7260646594000598
0.6000000000000001,-0.96,-0.6888656179499548
0.6200000000000001,-0.96,-0.6408027541964055
0.6400000000000001,-0.96,-0.5826340482121684
0.6600000000000001,-0.96,-0.515276855238916
0.6799999999999999,-0.96,-0.4397934384470726
0.7,-0.96,-0.3573742164110534
0.72,-0.96,-0.2693189894972228
0.74,-0.96,-0.17701644123565488
0.76,-0.96,-0.08192223795130424
0.78,-0.96,0.014463927963511394
0.8,-0.96,0.1106219890940109
0.8200000000000001,-0.96,0.2050354753741249
0.8400000000000001,-0.96,0.2962154297253329
0.8600000000000001,-0.96,0.3827238897992519
0.8800000000000001,-0.96,0.463196565502867
0.9000000000000001,-0.96,0.5363643546682856
0.9199999999999999,-0.96,0.6010733575520504
0.94,-0.96,0.6563030745234001
0.96,-0.96,0.7011824999530625
0.98,-0.96,0.7350038584923432
1.0,-0.96,0.7572337671131765

-1.0,-0.94,0.7507122779280258
-0.98,-0.94,0.7572337671131742
-0.96,-0.94,0.751813227441422
-0.94,-0.94,0.734536144061466
-0.92,-0.94,0.7056749868990375
-0.9,-0.94,0.6656849136434072
-0.88,-0.94,0.6151965916387282
-0.86,-0.94,0.5550062518832765
-0.84,-0.94,0.486063131990961
-0.8200000000000001,-0.94,0.4094545061471079
-0.8,-0.94,0.3263885381450486
-0.78,-0.94,0.23817522792138002
-0.76,-0.94,0.14620575207440623
-0.74,-0.94,0.05193052417813627
-0.72,-0.94,-0.043163679106214506
-0.7,-0.94,-0.13757716538632844
-0.6799999999999999,-0.94,-0.22982097758368494
-0.6599999999999999,-0.94,-0.3184403756761496
-0.64,-0.94,-0.40203777881714153
-0.62,-0.94,-0.4792948060204591
-0.6,-0.94,-0.5489930678159952
-0.5800000000000001,-0.94,-0.6100333809795105
-0.56,-0.94,-0.6614531033087011
-0.54,-0.94,-0.7024413150657827
-0.52,-0.94,-0.7323516076661746
-0.5,-0.94,-0.7507122779280256
-0.48,-0.94,-0.7572337671131746
-0.45999999999999996,-0.94,-0.7518132274414222
-0.43999999999999995,-0.94,-0.7345361440614661
-0.42000000000000004,-0.94,-0.7056749868990374
-0.4,-0.94,-0.6656849136434073
-0.38,-0.94,-0.6151965916387282
-0.36,-0.94,-0.5550062518832766
-0.33999999999999997,-0.94,-0.4860631319909614
-0.31999999999999995,-0.94,-0.4094545061471081
-0.29999999999999993,-0.94,-0.32638853814504876
-0.28,-0.94,-0.23817522792138002
-0.26,-0.94,-0.14620575207440625
-0.24,-0.94,-0.05193052417813619
-0.21999999999999997,-0.94,0.0431636791062146
-0.19999999999999996,-0.94,0.13757716538632853
-0.17999999999999994,-0.94,0.22982097758368503
-0.16000000000000003,-0.94,0.3184403756761497
-0.14,-0.94,0.4020377788171417
-0.12,-0.94,0.47929480602045926
-0.09999999999999998,-0.94,0.5489930678159954
-0.07999999999999996,-0.94,0.6100333809795107
-0.05999999999999994,-0.94,0.6614531033087012
-0.040000000000000036,-0.94,0.7024413150657827
-0.020000000000000018,-0.94,0.7323516076661747
0.0,-0.94,0.7507122779280255
0.020000000000000018,-0.94,0.7572337671131745
0.040000000000000036,-0.94,0.7518132274414224
0.06000000000000005,-0.94,0.7345361440614661
0.08000000000000007,-0.94,0.7056749868990375
0.10000000000000009,-0.94,0.6656849136434072
0.1200000000000001,-0.94,0.6151965916387281
0.14000000000000012,-0.94,0.5550062518832765
0.15999999999999992,-0.94,0.48606313199096135
0.17999999999999994,-0.94,0.40945450614710804
0.19999999999999996,-0.94,0.3263885381450487
0.21999999999999997,-0.94,0.23817522792137996
0.24,-0.94,0.14620575207440614
0.26,-0.94,0.05193052417813619
0.28,-0.94,-0.04316367910621463
0.30000000000000004,-0.94,-0.13757716538632853
0.32000000000000006,-0.94,-0.22982097758368494
0.3400000000000001,-0.94,-0.3184403756761497
0.3600000000000001,-0.94,-0.4020377788171414
0.3800000000000001,-0.94,-0.47929480602045915
0.40000000000000013,-0.94,-0.5489930678159953
0.41999999999999993,-0.94,-0.6100333809795105
0.43999999999999995,-0.94,-0.6614531033087012
0.45999999999999996,-0.94,-0.7024413150657823
0.48,-0.94,-0.7323516076661745
0.5,-0.94,-0.7507122779280258
0.52,-0.94,-0.7572337671131745
0.54,-0.94,-0.7518132274414223
0.56,-0.94,-0.7345361440614661
0.5800000000000001,-0.94,-0.7056749868990374
0.6000000000000001,-0.94,-0.6656849136434071
0.6200000000000001,-0.94,-0.6151965916387282
0.6400000000000001,-0.94,-0.5550062518832766
0.6600000000000001,-0.94,-0.4860631319909612
0.6799999999999999,-0.94,-0.409454506147108
0.7,-0.94,-0.32638853814504853
0.72,-0.94,-0.23817522792137977
0.74,-0.94,-0.14620575207440614
0.76,-0.94,-0.051930524178136185
0.78,-0.94,0.04316367910621463
0.8,-0.94,0.13757716538632853
0.8200000000000001,-0.94,0.22982097758368505
0.8400000000000001,-0.94,0.31844037567614975
0.8600000000000001,-0.94,0.4020377788171416
0.8800000000000001,-0.94,0.47929480602045915
0.9000000000000001,-0.94,0.5489930678159951
0.9199999999999999,-0.94,0.6100333809795107
0.94,-0.94,0.6614531033087011
0.96,-0.94,0.7024413150657828
0.98,-0.94,0.7323516076661745
1.0,-0.94,0.7507122779280258

-1.0,-0.92,0.7323516076661728
-0.98,-0.92,0.7350038584923395
-0.96,-0.92,0.7260646594000598
-0.94,-0.92,0.7056749868990375
-0.92,-0.92,0.6741563983048136
-0.9,-0.92,0.6320059605878107
-0.88,-0.92,0.579888411330278
-0.86,-0.92,0.5186256754175208
-0.84,-0.92,0.44918390279146864
-0.8200000000000001,-0.92,0.3726582316889374
-0.8,-0.92,0.2902555176574347
-0.78,-0.92,0.20327530072223207
-0.76,-0.92,0.11308931086386131
-0.74,-0.92,0.021119835016887488
-0.72,-0.92,-0.07118271324468074
-0.7,-0.92,-0.16236266759588852
-0.6799999999999999,-0.92,-0.2509820656883531
-0.6599999999999999,-0.92,-0.3356433266754937
-0.64,-0.92,-0.41501129189735675
-0.62,-0.92,-0.4878342811302696
-0.6,-0.92,-0.552963832331684
-0.5800000000000001,-0.92,-0.6093728135726458
-0.56,-0.92,-0.6561716215218935
-0.54,-0.92,-0.6926222110218135
-0.52,-0.92,-0.7181497345014657
-0.5,-0.92,-0.7323516076661732
-0.48,-0.92,-0.7350038584923398
-0.45999999999999996,-0.92,-0.7260646594000598
-0.43999999999999995,-0.92,-0.7056749868990374
-0.42000000000000004,-0.92,-0.6741563983048137
-0.4,-0.92,-0.6320059605878108
-0.38,-0.92,-0.5798884113302781
-0.36,-0.92,-0.5186256754175212
-0.33999999999999997,-0.92,-0.44918390279146886
-0.31999999999999995,-0.92,-0.3726582316889376
-0.29999999999999993,-0.92,-0.2902555176574346
-0.28,-0.92,-0.20327530072223213
-0.26,-0.92,-0.11308931086386122
-0.24,-0.92,-0.02111983501688744
-0.21999999999999997,-0.92,0.07118271324468078
-0.19999999999999996,-0.92,0.1623626675958886
-0.17999999999999994,-0.92,0.2509820656883532
-0.16000000000000003,-0.92,0.33564332667549374
-0.14,-0.92,0.4150112918973569
-0.12,-0.92,0.4878342811302698
-0.09999999999999998,-0.92,0.5529638323316841
-0.07999999999999996,-0.92,0.6093728135726459
-0.05999999999999994,-0.92,0.6561716215218932
-0.040000000000000036,-0.92,0.6926222110218135
-0.020000000000000018,-0.92,0.7181497345014656
0.0,-0.92,0.732351607666173
0.020000000000000018,-0.92,0.7350038584923398
0.040000000000000036,-0.92,0.7260646594000598
0.06000000000000005,-0.92,0.7056749868990376
0.08000000000000007,-0.92,0.6741563983048134
0.10000000000000009,-0.92,0.6320059605878108
0.1200000000000001,-0.92,0.579888411330278
0.14000000000000012,-0.92,0.5186256754175211
0.15999999999999992,-0.92,0.44918390279146875
0.17999999999999994,-0.92,0.3726582316889376
0.19999999999999996,-0.92,0.2902555176574347
0.21999999999999997,-0.92,0.20327530072223202
0.24,-0.92,0.11308931086386122
0.26,-0.92,0.021119835016887377
0.28,-0.92,-0.07118271324468081
0.30000000000000004,-0.92,-0.16236266759588858
0.32000000000000006,-0.92,-0.2509820656883532
0.3400000000000001,-0.92,-0.33564332667549357
0.3600000000000001,-0.92,-0.4150112918973568
0.3800000000000001,-0.92,-0.4878342811302697
0.40000000000000013,-0.92,-0.552963832331684
0.41999999999999993,-0.92,-0.609372813572646
0.43999999999999995,-0.92,-0.6561716215218931
0.45999999999999996,-0.92,-0.6926222110218134
0.48,-0.92,-0.7181497345014658
0.5,-0.92,-0.732351607666173
0.52,-0.92,-0.7350038584923398
0.54,-0.92,-0.7260646594000597
0.56,-0.92,-0.7056749868990374
0.5800000000000001,-0.92,-0.6741563983048134
0.6000000000000001,-0.92,-0.6320059605878107
0.6200000000000001,-0.92,-0.579888411330278
0.6400000000000001,-0.92,-0.518625675417521
0.6600000000000001,-0.92,-0.44918390279146875
0.6799999999999999,-0.92,-0.3726582316889373
0.7,-0.92,-0.29025551765743435
0.72,-0.92,-0.20327530072223204
0.74,-0.92,-0.11308931086386122
0.76,-0.92,-0.021119835016887356
0.78,-0.92,0.07118271324468081
0.8,-0.92,0.16236266759588866
0.8200000000000001,-0.92,0.25098206568835324
0.8400000000000001,-0.92,0.3356433266754936
0.8600000000000001,-0.92,0.4150112918973568
0.8800000000000001,-0.92,0.4878342811302696
0.9000000000000001,-0.92,0.5529638323316842
0.9199999999999999,-0.92,0.6093728135726459
0.94,-0.92,0.6561716215218936
0.96,-0.92,0.6926222110218135
0.98,-0.92,0.7181497345014658
1.0,-0.92,0.7323516076661728

-1.0,-0.9,0.7024413150657801
-0.98,-0.9,0.7011824999530585
-0.96,-0.9,0.6888656179499549
-0.94,-0.9,0.6656849136434073
-0.92,-0.9,0.6320059605878107
-0.9,-0.9,0.5883598959916844
-0.88,-0.9,0.5354350443666033
-0.86,-0.9,0.47406606223847025
-0.84,-0.9,0.40522077511549737
-0.8200000000000001,-0.9,0.3299849143017954
-0.8,-0.9,0.24954499426612092
-0.78,-0.9,0.16516960059991606
-0.76,-0.9,0.07818938366471348
-0.74,-0.9,-0.01002392655895561
-0.72,-0.9,-0.09807915347278641
-0.7,-0.9,-0.18458761354670522
-0.6799999999999999,-0.9,-0.2681850166876972
-0.6599999999999999,-0.9,-0.34755298190956024
-0.64,-0.9,-0.42143982898862165
-0.62,-0.9,-0.48868031820858165
-0.6,-0.9,-0.5482140268869206
-0.5800000000000001,-0.9,-0.5991020728740672
-0.56,-0.9,-0.6405419212857586
-0.54,-0.9,-0.671880040957577
-0.52,-0.9,-0.6926222110218125
-0.5,-0.9,-0.7024413150657803
-0.48,-0.9,-0.7011824999530583
-0.45999999999999996,-0.9,-0.6888656179499547
-0.43999999999999995,-0.9,-0.6656849136434072
-0.42000000000000004,-0.9,-0.6320059605878109
-0.4,-0.9,-0.5883598959916844
-0.38,-0.9,-0.5354350443666038
-0.36,-0.9,-0.47406606223847064
-0.33999999999999997,-0.9,-0.40522077511549753
-0.31999999999999995,-0.9,-0.3299849143017954
-0.29999999999999993,-0.9,-0.24954499426612103
-0.28,-0.9,-0.16516960059991598
-0.26,-0.9,-0.07818938366471344
-0.24,-0.9,0.01002392655895563
-0.21999999999999997,-0.9,0.09807915347278649
-0.19999999999999996,-0.9,0.1845876135467053
-0.17999999999999994,-0.9,0.26818501668769723
-0.16000000000000003,-0.9,0.3475529819095604
-0.14,-0.9,0.4214398289886217
-0.12,-0.9,0.4886803182085819
-0.09999999999999998,-0.9,0.5482140268869207
-0.07999999999999996,-0.9,0.599102072874067
-0.05999999999999994,-0.9,0.6405419212857587
-0.040000000000000036,-0.9,0.6718800409575767
-0.020000000000000018,-0.9,0.6926222110218124
0.0,-0.9,0.7024413150657803
0.020000000000000018,-0.9,0.7011824999530584
0.040000000000000036,-0.9,0.688865617949955
0.06000000000000005,-0.9,0.6656849136434071
0.08000000000000007,-0.9,0.6320059605878108
0.10000000000000009,-0.9,0.5883598959916843
0.1200000000000001,-0.9,0.5354350443666038
0.14000000000000012,-0.9,0.4740660622384704
0.15999999999999992,-0.9,0.40522077511549753
0.17999999999999994,-0.9,0.32998491430179533
0.19999999999999996,-0.9,0.24954499426612092
0.21999999999999997,-0.9,0.16516960059991598
0.24,-0.9,0.07818938366471337
0.26,-0.9,-0.010023926558955672
0.28,-0.9,-0.09807915347278649
0.30000000000000004,-0.9,-0.18458761354670533
0.32000000000000006,-0.9,-0.2681850166876971
0.3400000000000001,-0.9,-0.3475529819095603
0.3600000000000001,-0.9,-0.42143982898862165
0.3800000000000001,-0.9,-0.4886803182085817
0.40000000000000013,-0.9,-0.5482140268869208
0.41999999999999993,-0.9,-0.5991020728740669
0.43999999999999995,-0.9,-0.6405419212857585
0.45999999999999996,-0.9,-0.6718800409575769
0.48,-0.9,-0.6926222110218124
0.5,-0.9,-0.7024413150657802
0.52,-0.9,-0.7011824999530584
0.54,-0.9,-0.6888656179499548
0.56,-0.9,-0.665684913643407
0.5800000000000001,-0.9,-0.6320059605878107
0.6000000000000001,-0.9,-0.5883598959916843
0.6200000000000001,-0.9,-0.5354350443666036
0.6400000000000001,-0.9,-0.4740660622384705
0.6600000000000001,-0.9,-0.4052207751154973
0.6799999999999999,-0.9,-0.3299849143017951
0.7,-0.9,-0.24954499426612098
0.72,-0.9,-0.16516960059991595
0.74,-0.9,-0.07818938366471334
0.76,-0.9,0.010023926558955665
0.78,-0.9,0.09807915347278656
0.8,-0.9,0.18458761354670541
0.8200000000000001,-0.9,0.2681850166876972
0.8400000000000001,-0.9,0.3475529819095603
0.8600000000000001,-0.9,0.4214398289886216
0.8800000000000001,-0.9,0.4886803182085819
0.9000000000000001,-0.9,0.5482140268869206
0.9199999999999999,-0.9,0.5991020728740672
0.94,-0.9,0.6405419212857586
0.96,-0.9,0.671880040957577
0.98,-0.9,0.6926222110218123
1.0,-0.9,0.7024413150657801

-1.0,-0.88,0.6614531033086982
-0.98,-0.88,0.6563030745233952
-0.96,-0.88,0.6408027541964058
-0.94,-0.88,0.6151965916387281
-0.92,-0.88,0.5798884113302781
-0.9,-0.88,0.5354350443666034
-0.88,-0.88,0.4825375468998766
-0.86,-0.88,0.4220301440645801
-0.84,-0.88,0.35486707374879706
-0.8200000000000001,-0.88,0.2821075376926809
-0.8,-0.88,0.20489899724427693
-0.78,-0.88,0.12445907720860247
-0.76,-0.88,0.04205636317709924
-0.74,-0.88,-0.041009604824960355
-0.72,-0.88,-0.12342882686098
-0.7,-0.88,-0.20390150256459497
-0.6799999999999999,-0.88,-0.28115852976791245
-0.6599999999999999,-0.88,-0.35398151900082514
-0.64,-0.88,-0.42122200822078526
-0.62,-0.88,-0.48181957474527287
-0.6,-0.88,-0.5348185587509651
-0.5800000000000001,-0.88,-0.5793831346000335
-0.56,-0.88,-0.614810492309751
-0.54,-0.88,-0.6405419212857579
-0.52,-0.88,-0.6561716215218918
-0.5,-0.88,-0.661453103308698
-0.48,-0.88,-0.656303074523395
-0.45999999999999996,-0.88,-0.6408027541964055
-0.43999999999999995,-0.88,-0.6151965916387282
-0.42000000000000004,-0.88,-0.579888411330278
-0.4,-0.88,-0.5354350443666039
-0.38,-0.88,-0.482537546899877
-0.36,-0.88,-0.4220301440645802
-0.33999999999999997,-0.88,-0.35486707374879706
-0.31999999999999995,-0.88,-0.282107537692681
-0.29999999999999993,-0.88,-0.20489899724427685
-0.28,-0.88,-0.12445907720860243
-0.26,-0.88,-0.04205636317709925
-0.24,-0.88,0.04100960482496041
-0.21999999999999997,-0.88,0.12342882686098008
-0.19999999999999996,-0.88,0.20390150256459502
-0.17999999999999994,-0.88,0.28115852976791256
-0.16000000000000003,-0.88,0.35398151900082525
-0.14,-0.88,0.4212220082207855
-0.12,-0.88,0.481819574745273
-0.09999999999999998,-0.88,0.5348185587509651
-0.07999999999999996,-0.88,0.5793831346000335
-0.05999999999999994,-0.88,0.6148104923097508
-0.040000000000000036,-0.88,0.6405419212857578
-0.020000000000000018,-0.88,0.6561716215218917
0.0,-0.88,0.661453103308698
0.020000000000000018,-0.88,0.6563030745233952
0.040000000000000036,-0.88,0.6408027541964054
0.06000000000000005,-0.88,0.6151965916387283
0.08000000000000007,-0.88,0.5798884113302779
0.10000000000000009,-0.88,0.5354350443666036
0.1200000000000001,-0.88,0.4825375468998767
0.14000000000000012,-0.88,0.4220301440645803
0.15999999999999992,-0.88,0.354867073748797
0.17999999999999994,-0.88,0.28210753769268093
0.19999999999999996,-0.88,0.20489899724427685
0.21999999999999997,-0.88,0.12445907720860239
0.24,-0.88,0.04205636317709921
0.26,-0.88,-0.04100960482496044
0.28,-0.88,-0.12342882686098011
0.30000000000000004,-0.88,-0.20390150256459494
0.32000000000000006,-0.88,-0.2811585297679125
0.3400000000000001,-0.88,-0.35398151900082525
0.3600000000000001,-0.88,-0.42122200822078537
0.3800000000000001,-0.88,-0.48181957474527315
0.40000000000000013,-0.88,-0.5348185587509648
0.41999999999999993,-0.88,-0.5793831346000333
0.43999999999999995,-0.88,-0.614810492309751
0.45999999999999996,-0.88,-0.6405419212857578
0.48,-0.88,-0.6561716215218917
0.5,-0.88,-0.661453103308698
0.52,-0.88,-0.6563030745233951
0.54,-0.88,-0.6408027541964053
0.56,-0.88,-0.6151965916387282
0.5800000000000001,-0.88,-0.579888411330278
0.6000000000000001,-0.88,-0.5354350443666035
0.6200000000000001,-0.88,-0.4825375468998768
0.6400000000000001,-0.88,-0.42203014406458006
0.6600000000000001,-0.88,-0.3548670737487968
0.6799999999999999,-0.88,-0.282107537692681
0.7,-0.88,-0.20489899724427682
0.72,-0.88,-0.12445907720860232
0.74,-0.88,-0.0420563631770992
0.76,-0.88,0.04100960482496048
0.78,-0.88,0.1234288268609802
0.8,-0.88,0.20390150256459497
0.8200000000000001,-0.88,0.2811585297679125
0.8400000000000001,-0.88,0.3539815190008252
0.8600000000000001,-0.88,0.4212220082207854
0.8800000000000001,-0.88,0.481819574745273
0.9000000000000001,-0.88,0.5348185587509652
0.9199999999999999,-0.88,0.5793831346000334
0.94,-0.88,0.614810492309751
0.96,-0.88,0.6405419212857577
0.98,-0.88,0.6561716215218916
1.0,-0.88,0.6614531033086982

-1.0,-0.86,0.6100333809795068
-0.98,-0.86,0.6010733575520453
-0.96,-0.86,0.5826340482121682
-0.94,-0.86,0.5550062518832766
-0.92,-0.86,0.5186256754175209
-0.9,-0.86,0.47406606223847025
-0.88,-0.86,0.4220301440645801
-0.86,-0.86,0.36333855841020346
-0.84,-0.86,0.29891690664176357
-0.8200000000000001,-0.86,0.2297811566912787
-0.8,-0.86,0.1570216206351625
-0.78,-0.86,0.08178575982146015
-0.76,-0.86,0.005260088718928687
-0.74,-0.86,-0.07134853712492509
-0.72,-0.86,-0.14683195391676881
-0.7,-0.86,-0.2199997430821872
-0.6799999999999999,-0.86,-0.2896980048777232
-0.6599999999999999,-0.86,-0.35482755607913763
-0.64,-0.86,-0.41436126475747664
-0.62,-0.86,-0.46736024876316884
-0.6,-0.86,-0.5129886824583859
-0.5800000000000001,-0.86,-0.5505269781866492
-0.56,-0.86,-0.579383134600033
-0.54,-0.86,-0.5991020728740661
-0.52,-0.86,-0.609372813572644
-0.5,-0.86,-0.6100333809795065
-0.48,-0.86,-0.601073357552045
-0.45999999999999996,-0.86,-0.5826340482121685
-0.43999999999999995,-0.86,-0.5550062518832765
-0.42000000000000004,-0.86,-0.5186256754175212
-0.4,-0.86,-0.4740660622384706
-0.38,-0.86,-0.4220301440645803
-0.36,-0.86,-0.36333855841020346
-0.33999999999999997,-0.86,-0.2989169066417637
-0.31999999999999995,-0.86,-0.22978115669127866
-0.29999999999999993,-0.86,-0.15702162063516248
-0.28,-0.86,-0.08178575982146019
-0.26,-0.86,-0.005260088718928659
-0.24,-0.86,0.07134853712492518
-0.21999999999999997,-0.86,0.14683195391676884
-0.19999999999999996,-0.86,0.21999974308218734
-0.17999999999999994,-0.86,0.2896980048777233
-0.16000000000000003,-0.86,0.35482755607913785
-0.14,-0.86,0.4143612647574768
-0.12,-0.86,0.4673602487631688
-0.09999999999999998,-0.86,0.5129886824583859
-0.07999999999999996,-0.86,0.550526978186649
-0.05999999999999994,-0.86,0.5793831346000331
-0.040000000000000036,-0.86,0.599102072874066
-0.020000000000000018,-0.86,0.6093728135726438
0.0,-0.86,0.6100333809795068
0.020000000000000018,-0.86,0.6010733575520448
0.040000000000000036,-0.86,0.5826340482121685
0.06000000000000005,-0.86,0.5550062518832763
0.08000000000000007,-0.86,0.518625675417521
0.10000000000000009,-0.86,0.47406606223847036
0.1200000000000001,-0.86,0.4220301440645803
0.14000000000000012,-0.86,0.36333855841020335
0.15999999999999992,-0.86,0.2989169066417636
0.17999999999999994,-0.86,0.22978115669127863
0.19999999999999996,-0.86,0.15702162063516245
0.21999999999999997,-0.86,0.08178575982146015
0.24,-0.86,0.005260088718928604
0.26,-0.86,-0.0713485371249252
0.28,-0.86,-0.14683195391676884
0.30000000000000004,-0.86,-0.2199997430821873
0.32000000000000006,-0.86,-0.2896980048777233
0.3400000000000001,-0.86,-0.35482755607913774
0.3600000000000001,-0.86,-0.4143612647574768
0.3800000000000001,-0.86,-0.46736024876316873
0.40000000000000013,-0.86,-0.5129886824583857
0.41999999999999993,-0.86,-0.5505269781866491