TITLE = "Solution" 
VARIABLES = "x", "y", "sol" 
ZONE STRANDID=1, SOLUTIONTIME= 0.8200000000000005, I= 101, J =101, DATAPACKING=POINT 
-1.0,-1.0,0.5799549481474379
-0.98,-1.0,0.6236672882677524
-0.96,-1.0,0.6575440226913047
-0.94,-1.0,0.6810508950792559
-0.92,-1.0,0.6938171880117223
-0.9,-1.0,0.695641569422946
-0.88,-1.0,0.6864952677282389
-0.86,-1.0,0.6665225255690627
-0.84,-1.0,0.6360383250204055
-0.8200000000000001,-1.0,0.5955234201352981
-0.8,-1.0,0.5456167551662097
-0.78,-1.0,0.4871053880324989
-0.76,-1.0,0.4209120779468615
-0.74,-1.0,0.34808073295131453
-0.72,-1.0,0.26975994686377475
-0.7,-1.0,0.1871848852674119
-0.6799999999999999,-1.0,0.10165780621155164
-0.6599999999999999,-1.0,0.014527522824305191
-0.64,-1.0,-0.07283186827620211
-0.62,-1.0,-0.15904265730634473
-0.6,-1.0,-0.24274524862328803
-0.5800000000000001,-1.0,-0.3226196023604594
-0.56,-1.0,-0.3974060522447978
-0.54,-1.0,-0.4659251712863674
-0.52,-1.0,-0.527096372046545
-0.5,-1.0,-0.5799549481474378
-0.48,-1.0,-0.6236672882677523
-0.45999999999999996,-1.0,-0.6575440226913047
-0.43999999999999995,-1.0,-0.6810508950792559
-0.42000000000000004,-1.0,-0.6938171880117221
-0.4,-1.0,-0.695641569422946
-0.38,-1.0,-0.6864952677282388
-0.36,-1.0,-0.6665225255690629
-0.33999999999999997,-1.0,-0.6360383250204056
-0.31999999999999995,-1.0,-0.5955234201352981
-0.29999999999999993,-1.0,-0.5456167551662098
-0.28,-1.0,-0.487105388032499
-0.26,-1.0,-0.42091207794686136
-0.24,-1.0,-0.3480807329513144
-0.21999999999999997,-1.0,-0.2697599468637747
-0.19999999999999996,-1.0,-0.18718488526741192
-0.17999999999999994,-1.0,-0.10165780621155167
-0.16000000000000003,-1.0,-0.014527522824305122
-0.14,-1.0,0.07283186827620225
-0.12,-1.0,0.15904265730634468
-0.09999999999999998,-1.0,0.24274524862328806
-0.07999999999999996,-1.0,0.3226196023604595
-0.05999999999999994,-1.0,0.39740605224479797
-0.040000000000000036,-1.0,0.46592517128636757
-0.020000000000000018,-1.0,0.5270963720465449
0.0,-1.0,0.5799549481474379
0.020000000000000018,-1.0,0.6236672882677524
0.040000000000000036,-1.0,0.6575440226913049
0.06000000000000005,-1.0,0.6810508950792558
0.08000000000000007,-1.0,0.6938171880117227
0.10000000000000009,-1.0,0.695641569422946
0.1200000000000001,-1.0,0.6864952677282391
0.14000000000000012,-1.0,0.6665225255690627
0.15999999999999992,-1.0,0.6360383250204056
0.17999999999999994,-1.0,0.5955234201352981
0.19999999999999996,-1.0,0.5456167551662097
0.21999999999999997,-1.0,0.4871053880324988
0.24,-1.0,0.4209120779468614
0.26,-1.0,0.3480807329513144
0.28,-1.0,0.2697599468637746
0.30000000000000004,-1.0,0.18718488526741203
0.32000000000000006,-1.0,0.1016578062115516
0.3400000000000001,-1.0,0.014527522824305115
0.3600000000000001,-1.0,-0.07283186827620224
0.3800000000000001,-1.0,-0.15904265730634473
0.40000000000000013,-1.0,-0.24274524862328797
0.41999999999999993,-1.0,-0.3226196023604595
0.43999999999999995,-1.0,-0.3974060522447978
0.45999999999999996,-1.0,-0.4659251712863674
0.48,-1.0,-0.5270963720465449
0.5,-1.0,-0.5799549481474378
0.52,-1.0,-0.6236672882677522
0.54,-1.0,-0.657544022691305
0.56,-1.0,-0.6810508950792558
0.5800000000000001,-1.0,-0.6938171880117225
0.6000000000000001,-1.0,-0.6956415694229457
0.6200000000000001,-1.0,-0.6864952677282389
0.6400000000000001,-1.0,-0.6665225255690627
0.6600000000000001,-1.0,-0.6360383250204057
0.6799999999999999,-1.0,-0.5955234201352984
0.7,-1.0,-0.5456167551662098
0.72,-1.0,-0.4871053880324988
0.74,-1.0,-0.42091207794686125
0.76,-1.0,-0.34808073295131436
0.78,-1.0,-0.2697599468637746
0.8,-1.0,-0.18718488526741184
0.8200000000000001,-1.0,-0.10165780621155153
0.8400000000000001,-1.0,-0.014527522824305025
0.8600000000000001,-1.0,0.07283186827620224
0.8800000000000001,-1.0,0.15904265730634484
0.9000000000000001,-1.0,0.24274524862328797
0.9199999999999999,-1.0,0.32261960236045933
0.94,-1.0,0.3974060522447978
0.96,-1.0,0.4659251712863674
0.98,-1.0,0.5270963720465451
1.0,-1.0,0.5799549481474379

-1.0,-0.98,0.6236672882677523
-0.98,-0.98,0.6657514504605659
-0.96,-0.98,0.6973363145789774
-0.94,-0.98,0.7179237684479558
-0.92,-0.98,0.7271891356216386
-0.9,-0.98,0.7249862957248342
-0.88,-0.98,0.711349988858629
-0.86,-0.98,0.6864952677282379
-0.84,-0.98,0.6508141061333774
-0.8200000000000001,-0.98,0.6048692173072915
-0.8,-0.98,0.5493851795929131
-0.78,-0.98,0.48523700940955644
-0.76,-0.98,0.41343636172127196
-0.74,-0.98,0.3351155756337322
-0.72,-0.98,0.251509816730107
-0.7,-0.98,0.16393759777196623
-0.6799999999999999,-0.98,0.07377998496538733
-0.6599999999999999,-0.98,-0.017541182278122434
-0.64,-0.98,-0.10858571459851206
-0.62,-0.98,-0.19791778533372148
-0.6,-0.98,-0.284128574363864
-0.5800000000000001,-0.98,-0.3658584860461056
-0.56,-0.98,-0.44181859085013425
-0.54,-0.98,-0.5108109525468233
-0.52,-0.98,-0.5717475203781766
-0.5,-0.98,-0.6236672882677522
-0.48,-0.98,-0.6657514504605659
-0.45999999999999996,-0.98,-0.6973363145789775
-0.43999999999999995,-0.98,-0.7179237684479556
-0.42000000000000004,-0.98,-0.7271891356216384
-0.4,-0.98,-0.7249862957248342
-0.38,-0.98,-0.7113499888586291
-0.36,-0.98,-0.686495267728238
-0.33999999999999997,-0.98,-0.6508141061333774
-0.31999999999999995,-0.98,-0.6048692173072915
-0.29999999999999993,-0.98,-0.5493851795929132
-0.28,-0.98,-0.4852370094095563
-0.26,-0.98,-0.4134363617212719
-0.24,-0.98,-0.33511557563373223
-0.21999999999999997,-0.98,-0.2515098167301071
-0.19999999999999996,-0.98,-0.1639375977719663
-0.17999999999999994,-0.98,-0.0737799849653873
-0.16000000000000003,-0.98,0.01754118227812256
-0.14,-0.98,0.10858571459851205
-0.12,-0.98,0.1979177853337216
-0.09999999999999998,-0.98,0.2841285743638642
-0.07999999999999996,-0.98,0.36585848604610577
-0.05999999999999994,-0.98,0.4418185908501343
-0.040000000000000036,-0.98,0.5108109525468232
-0.020000000000000018,-0.98,0.5717475203781767
0.0,-0.98,0.6236672882677524
0.020000000000000018,-0.98,0.6657514504605663
0.040000000000000036,-0.98,0.6973363145789775
0.06000000000000005,-0.98,0.717923768447956
0.08000000000000007,-0.98,0.7271891356216383
0.10000000000000009,-0.98,0.7249862957248345
0.1200000000000001,-0.98,0.711349988858629
0.14000000000000012,-0.98,0.6864952677282379
0.15999999999999992,-0.98,0.6508141061333775
0.17999999999999994,-0.98,0.6048692173072915
0.19999999999999996,-0.98,0.5493851795929131
0.21999999999999997,-0.98,0.48523700940955644
0.24,-0.98,0.4134363617212719
0.26,-0.98,0.3351155756337321
0.28,-0.98,0.2515098167301072
0.30000000000000004,-0.98,0.1639375977719662
0.32000000000000006,-0.98,0.07377998496538729
0.3400000000000001,-0.98,-0.017541182278122566
0.3600000000000001,-0.98,-0.1085857145985121
0.3800000000000001,-0.98,-0.19791778533372145
0.40000000000000013,-0.98,-0.28412857436386413
0.41999999999999993,-0.98,-0.3658584860461056
0.43999999999999995,-0.98,-0.4418185908501342
0.45999999999999996,-0.98,-0.5108109525468233
0.48,-0.98,-0.5717475203781763
0.5,-0.98,-0.6236672882677522
0.52,-0.98,-0.6657514504605663
0.54,-0.98,-0.6973363145789775
0.56,-0.98,-0.7179237684479559
0.5800000000000001,-0.98,-0.7271891356216383
0.6000000000000001,-0.98,-0.7249862957248343
0.6200000000000001,-0.98,-0.7113499888586289
0.6400000000000001,-0.98,-0.6864952677282381
0.6600000000000001,-0.98,-0.6508141061333778
0.6799999999999999,-0.98,-0.6048692173072916
0.7,-0.98,-0.549385179592913
0.72,-0.98,-0.4852370094095563
0.74,-0.98,-0.41343636172127185
0.76,-0.98,-0.335115575633732
0.78,-0.98,-0.25150981673010697
0.8,-0.98,-0.16393759777196615
0.8200000000000001,-0.98,-0.07377998496538718
0.8400000000000001,-0.98,0.017541182278122593
0.8600000000000001,-0.98,0.10858571459851216
0.8800000000000001,-0.98,0.19791778533372145
0.9000000000000001,-0.98,0.28412857436386413
0.9199999999999999,-0.98,0.36585848604610566
0.94,-0.98,0.44181859085013425
0.96,-0.98,0.5108109525468233
0.98,-0.98,0.5717475203781766
1.0,-0.98,0.6236672882677523

-1.0,-0.96,0.6575440226913047
-0.98,-0.96,0.6973363145789774
-0.96,-0.96,0.726131196217217
-0.94,-0.96,0.7434745551213603
-0.92,-0.96,0.7490928761610676
-0.9,-0.96,0.742897555057321
-0.88,-0.96,0.7249862957248328
-0.86,-0.96,0.6956415694229433
-0.84,-0.96,0.6553261600151233
-0.8200000000000001,-0.96,0.6046758655909924
-0.8,-0.96,0.5444894715506382
-0.78,-0.96,0.4757161532816863
-0.76,-0.96,0.39944050709642726
-0.74,-0.96,0.3168654455000645
-0.72,-0.96,0.2292932265419238
-0.7,-0.96,0.13810491642808256
-0.6799999999999999,-0.96,0.04473860928229227
-0.6599999999999999,-0.96,-0.04933325245742978
-0.64,-0.96,-0.14262709933564166
-0.62,-0.96,-0.23367163165603125
-0.6,-0.96,-0.321031022756539
-0.5800000000000001,-0.96,-0.4033275628535387
-0.56,-0.96,-0.4792633863481308
-0.54,-0.96,-0.5476409399419432
-0.52,-0.96,-0.6073818687680306
-0.5,-0.96,-0.6575440226913047
-0.48,-0.96,-0.6973363145789775
-0.45999999999999996,-0.96,-0.7261311962172169
-0.43999999999999995,-0.96,-0.7434745551213602
-0.42000000000000004,-0.96,-0.7490928761610676
-0.4,-0.96,-0.7428975550573211
-0.38,-0.96,-0.7249862957248329
-0.36,-0.96,-0.6956415694229434
-0.33999999999999997,-0.96,-0.6553261600151234
-0.31999999999999995,-0.96,-0.6046758655909924
-0.29999999999999993,-0.96,-0.544489471550638
-0.28,-0.96,-0.47571615328168626
-0.26,-0.96,-0.3994405070964273
-0.24,-0.96,-0.31686544550006457
-0.21999999999999997,-0.96,-0.2292932265419239
-0.19999999999999996,-0.96,-0.1381049164280826
-0.17999999999999994,-0.96,-0.044738609282292174
-0.16000000000000003,-0.96,0.04933325245742977
-0.14,-0.96,0.14262709933564177
-0.12,-0.96,0.2336716316560314
-0.09999999999999998,-0.96,0.32103102275653916
-0.07999999999999996,-0.96,0.4033275628535389
-0.05999999999999994,-0.96,0.47926338634813076
-0.040000000000000036,-0.96,0.5476409399419435
-0.020000000000000018,-0.96,0.6073818687680308
0.0,-0.96,0.657544022691305
0.020000000000000018,-0.96,0.6973363145789776
0.040000000000000036,-0.96,0.7261311962172173
0.06000000000000005,-0.96,0.7434745551213602
0.08000000000000007,-0.96,0.7490928761610678
0.10000000000000009,-0.96,0.7428975550573209
0.1200000000000001,-0.96,0.7249862957248328
0.14000000000000012,-0.96,0.6956415694229436
0.15999999999999992,-0.96,0.6553261600151233
0.17999999999999994,-0.96,0.6046758655909923
0.19999999999999996,-0.96,0.5444894715506381
0.21999999999999997,-0.96,0.47571615328168626
0.24,-0.96,0.3994405070964272
0.26,-0.96,0.3168654455000647
0.28,-0.96,0.22929322654192386
0.30000000000000004,-0.96,0.1381049164280826
0.32000000000000006,-0.96,0.044738609282292154
0.3400000000000001,-0.96,-0.04933325245742985
0.3600000000000001,-0.96,-0.1426270993356417
0.3800000000000001,-0.96,-0.23367163165603136
0.40000000000000013,-0.96,-0.32103102275653905
0.41999999999999993,-0.96,-0.40332756285353877
0.43999999999999995,-0.96,-0.47926338634813076
0.45999999999999996,-0.96,-0.5476409399419431
0.48,-0.96,-0.6073818687680307
0.5,-0.96,-0.6575440226913051
0.52,-0.96,-0.6973363145789775
0.54,-0.96,-0.7261311962172172
0.56,-0.96,-0.74347455512136
0.5800000000000001,-0.96,-0.7490928761610676
0.6000000000000001,-0.96,-0.742897555057321
0.6200000000000001,-0.96,-0.7249862957248329
0.6400000000000001,-0.96,-0.6956415694229435
0.6600000000000001,-0.96,-0.6553261600151234
0.6799999999999999,-0.96,-0.6046758655909922
0.7,-0.96,-0.544489471550638
0.72,-0.96,-0.47571615328168626
0.74,-0.96,-0.3994405070964271
0.76,-0.96,-0.3168654455000645
0.78,-0.96,-0.22929322654192374
0.8,-0.96,-0.13810491642808245
0.8200000000000001,-0.96,-0.044738609282292084
0.8400000000000001,-0.96,0.04933325245742988
0.8600000000000001,-0.96,0.1426270993356417
0.8800000000000001,-0.96,0.2336716316560314
0.9000000000000001,-0.96,0.3210310227565391
0.9199999999999999,-0.96,0.4033275628535388
0.94,-0.96,0.47926338634813087
0.96,-0.96,0.5476409399419433
0.98,-0.96,0.6073818687680306
1.0,-0.96,0.6575440226913047

-1.0,-0.94,0.6810508950792559
-0.98,-0.94,0.7179237684479558
-0.96,-0.94,0.7434745551213603
-0.94,-0.94,0.757300303930329
-0.92,-0.94,0.7591829745570424
-0.9,-0.94,0.7490928761610653
-0.88,-0.94,0.7271891356216348
-0.86,-0.94,0.6938171880117179
-0.84,-0.94,0.6495033288805583
-0.8200000000000001,-0.94,0.5949464142584703
-0.8,-0.94,0.5310068392797654
-0.78,-0.94,0.4586929692375091
-0.76,-0.94,0.37914523706047887
-0.74,-0.94,0.2936181580046189
-0.72,-0.94,0.20346054519804024
-0.7,-0.94,0.11009423805225006
-0.6799999999999999,-0.94,0.014991679005265617
-0.6599999999999999,-0.94,-0.08034730777522682
-0.64,-0.94,-0.17441916951494887
-0.62,-0.94,-0.2657403367584591
-0.6,-0.94,-0.3528706201457058
-0.5800000000000001,-0.94,-0.43443592305856404
-0.56,-0.94,-0.5091499119453478
-0.54,-0.94,-0.5758343025693382
-0.52,-0.94,-0.6334374422550715
-0.5,-0.94,-0.6810508950792559
-0.48,-0.94,-0.7179237684479557
-0.45999999999999996,-0.94,-0.7434745551213602
-0.43999999999999995,-0.94,-0.7573003039303289
-0.42000000000000004,-0.94,-0.7591829745570423
-0.4,-0.94,-0.7490928761610655
-0.38,-0.94,-0.7271891356216349
-0.36,-0.94,-0.693817188011718
-0.33999999999999997,-0.94,-0.6495033288805584
-0.31999999999999995,-0.94,-0.5949464142584703
-0.29999999999999993,-0.94,-0.5310068392797654
-0.28,-0.94,-0.45869296923750924
-0.26,-0.94,-0.3791452370604791
-0.24,-0.94,-0.29361815800461905
-0.21999999999999997,-0.94,-0.20346054519804035
-0.19999999999999996,-0.94,-0.11009423805225
-0.17999999999999994,-0.94,-0.014991679005265624
-0.16000000000000003,-0.94,0.0803473077752269
-0.14,-0.94,0.17441916951494899
-0.12,-0.94,0.2657403367584592
-0.09999999999999998,-0.94,0.352870620145706
-0.07999999999999996,-0.94,0.43443592305856404
-0.05999999999999994,-0.94,0.5091499119453479
-0.040000000000000036,-0.94,0.5758343025693385
-0.020000000000000018,-0.94,0.6334374422550718
0.0,-0.94,0.681050895079256
0.020000000000000018,-0.94,0.7179237684479559
0.040000000000000036,-0.94,0.7434745551213602
0.06000000000000005,-0.94,0.7573003039303291
0.08000000000000007,-0.94,0.7591829745570423
0.10000000000000009,-0.94,0.7490928761610653
0.1200000000000001,-0.94,0.7271891356216351
0.14000000000000012,-0.94,0.6938171880117181
0.15999999999999992,-0.94,0.6495033288805583
0.17999999999999994,-0.94,0.5949464142584703
0.19999999999999996,-0.94,0.5310068392797656
0.21999999999999997,-0.94,0.45869296923750913
0.24,-0.94,0.3791452370604791
0.26,-0.94,0.29361815800461905
0.28,-0.94,0.20346054519804035
0.30000000000000004,-0.94,0.11009423805224995
0.32000000000000006,-0.94,0.014991679005265565
0.3400000000000001,-0.94,-0.08034730777522688
0.3600000000000001,-0.94,-0.17441916951494899
0.3800000000000001,-0.94,-0.26574033675845915
0.40000000000000013,-0.94,-0.35287062014570586
0.41999999999999993,-0.94,-0.43443592305856404
0.43999999999999995,-0.94,-0.5091499119453475
0.45999999999999996,-0.94,-0.5758343025693383
0.48,-0.94,-0.6334374422550718
0.5,-0.94,-0.6810508950792559
0.52,-0.94,-0.717923768447956
0.54,-0.94,-0.7434745551213598
0.56,-0.94,-0.757300303930329
0.5800000000000001,-0.94,-0.7591829745570424
0.6000000000000001,-0.94,-0.7490928761610655
0.6200000000000001,-0.94,-0.727189135621635
0.6400000000000001,-0.94,-0.6938171880117181
0.6600000000000001,-0.94,-0.6495033288805581
0.6799999999999999,-0.94,-0.5949464142584703
0.7,-0.94,-0.5310068392797654
0.72,-0.94,-0.458692969237509
0.74,-0.94,-0.3791452370604789
0.76,-0.94,-0.2936181580046189
0.78,-0.94,-0.20346054519804016
0.8,-0.94,-0.11009423805224985
0.8200000000000001,-0.94,-0.01499167900526552
0.8400000000000001,-0.94,0.08034730777522686
0.8600000000000001,-0.94,0.17441916951494899
0.8800000000000001,-0.94,0.26574033675845915
0.9000000000000001,-0.94,0.35287062014570597
0.9199999999999999,-0.94,0.43443592305856416
0.94,-0.94,0.5091499119453478
0.96,-0.94,0.5758343025693383
0.98,-0.94,0.6334374422550715
1.0,-0.94,0.6810508950792559

-1.0,-0.92,0.6938171880117224
-0.98,-0.92,0.7271891356216386
-0.96,-0.92,0.7490928761610676
-0.94,-0.92,0.7591829745570423
-0.92,-0.92,0.7573003039303262
-0.9,-0.92,0.7434745551213559
-0.88,-0.92,0.7179237684479507
-0.86,-0.92,0.6810508950792501
-0.84,-0.92,0.6334374422550653
-0.8200000000000001,-0.92,0.5758343025693314
-0.8,-0.92,0.5091499119453413
-0.78,-0.92,0.43443592305855816
-0.76,-0.92,0.35287062014570086
-0.74,-0.92,0.2657403367584548
-0.72,-0.92,0.17441916951494538
-0.7,-0.92,0.08034730777522348
-0.6799999999999999,-0.92,-0.014991679005268894
-0.6599999999999999,-0.92,-0.11009423805225335
-0.64,-0.92,-0.20346054519804405
-0.62,-0.92,-0.29361815800462326
-0.6,-0.92,-0.379145237060484
-0.5800000000000001,-0.92,-0.4586929692375147
-0.56,-0.92,-0.5310068392797714
-0.54,-0.92,-0.5949464142584759
-0.52,-0.92,-0.6495033288805635
-0.5,-0.92,-0.6938171880117224
-0.48,-0.92,-0.7271891356216384
-0.45999999999999996,-0.92,-0.7490928761610676
-0.43999999999999995,-0.92,-0.7591829745570423
-0.42000000000000004,-0.92,-0.7573003039303265
-0.4,-0.92,-0.7434745551213561
-0.38,-0.92,-0.7179237684479508
-0.36,-0.92,-0.6810508950792501
-0.33999999999999997,-0.92,-0.633437442255065
-0.31999999999999995,-0.92,-0.5758343025693314
-0.29999999999999993,-0.92,-0.5091499119453414
-0.28,-0.92,-0.43443592305855844
-0.26,-0.92,-0.3528706201457011
-0.24,-0.92,-0.265740336758455
-0.21999999999999997,-0.92,-0.17441916951494538
-0.19999999999999996,-0.92,-0.08034730777522346
-0.17999999999999994,-0.92,0.014991679005268977
-0.16000000000000003,-0.92,0.11009423805225348
-0.14,-0.92,0.2034605451980442
-0.12,-0.92,0.29361815800462343
-0.09999999999999998,-0.92,0.37914523706048403
-0.07999999999999996,-0.92,0.45869296923751485
-0.05999999999999994,-0.92,0.5310068392797717
-0.040000000000000036,-0.92,0.5949464142584763
-0.020000000000000018,-0.92,0.6495033288805636
0.0,-0.92,0.6938171880117225
0.020000000000000018,-0.92,0.7271891356216384
0.040000000000000036,-0.92,0.7490928761610677
0.06000000000000005,-0.92,0.7591829745570422
0.08000000000000007,-0.92,0.7573003039303263
0.10000000000000009,-0.92,0.7434745551213563
0.1200000000000001,-0.92,0.7179237684479507
0.14000000000000012,-0.92,0.6810508950792501
0.15999999999999992,-0.92,0.6334374422550652
0.17999999999999994,-0.92,0.5758343025693314
0.19999999999999996,-0.92,0.5091499119453413
0.21999999999999997,-0.92,0.43443592305855844
0.24,-0.92,0.35287062014570103
0.26,-0.92,0.265740336758455
0.28,-0.92,0.17441916951494532
0.30000000000000004,-0.92,0.0803473077752234
0.32000000000000006,-0.92,-0.01499167900526897
0.3400000000000001,-0.92,-0.11009423805225348
0.3600000000000001,-0.92,-0.20346054519804413
0.3800000000000001,-0.92,-0.29361815800462326
0.40000000000000013,-0.92,-0.37914523706048403
0.41999999999999993,-0.92,-0.4586929692375145
0.43999999999999995,-0.92,-0.5310068392797715
0.45999999999999996,-0.92,-0.5949464142584762
0.48,-0.92,-0.6495033288805634
0.5,-0.92,-0.6938171880117227
0.52,-0.92,-0.7271891356216381
0.54,-0.92,-0.7490928761610676
0.56,-0.92,-0.7591829745570424
0.5800000000000001,-0.92,-0.7573003039303264
0.6000000000000001,-0.92,-0.7434745551213563
0.6200000000000001,-0.92,-0.7179237684479507
0.6400000000000001,-0.92,-0.6810508950792499
0.6600000000000001,-0.92,-0.6334374422550652
0.6799999999999999,-0.92,-0.5758343025693314
0.7,-0.92,-0.5091499119453413
0.72,-0.92,-0.43443592305855827
0.74,-0.92,-0.35287062014570086
0.76,-0.92,-0.26574033675845476
0.78,-0.92,-0.17441916951494518
0.8,-0.92,-0.08034730777522338
0.8200000000000001,-0.92,0.014991679005268956
0.8400000000000001,-0.92,0.11009423805225345
0.8600000000000001,-0.92,0.20346054519804416
0.8800000000000001,-0.92,0.2936181580046234
0.9000000000000001,-0.92,0.37914523706048414
0.9199999999999999,-0.92,0.45869296923751474
0.94,-0.92,0.5310068392797715
0.96,-0.92,0.5949464142584759
0.98,-0.92,0.6495033288805635
1.0,-0.92,0.6938171880117224

-1.0,-0.9,0.6956415694229461
-0.98,-0.9,0.7249862957248343
-0.96,-0.9,0.742897555057321
-0.94,-0.9,0.7490928761610651
-0.92,-0.9,0.7434745551213559
-0.9,-0.9,0.7261311962172118
-0.88,-0.9,0.6973363145789713
-0.86,-0.9,0.6575440226912981
-0.84,-0.9,0.6073818687680231
-0.8200000000000001,-0.9,0.5476409399419362
-0.8,-0.9,0.47926338634812415
-0.78,-0.9,0.4033275628535333
-0.76,-0.9,0.32103102275653433
-0.74,-0.9,0.23367163165602758
-0.72,-0.9,0.14262709933563822
-0.7,-0.9,0.049333252457426584
-0.6799999999999999,-0.9,-0.04473860928229538
-0.6599999999999999,-0.9,-0.138104916428086
-0.64,-0.9,-0.22929322654192752
-0.62,-0.9,-0.31686544550006884
-0.6,-0.9,-0.39944050709643203
-0.5800000000000001,-0.9,-0.47571615328169126
-0.56,-0.9,-0.544489471550643
-0.54,-0.9,-0.6046758655909965
-0.52,-0.9,-0.6553261600151267
-0.5,-0.9,-0.6956415694229459
-0.48,-0.9,-0.7249862957248344
-0.45999999999999996,-0.9,-0.742897555057321
-0.43999999999999995,-0.9,-0.7490928761610656
-0.42000000000000004,-0.9,-0.7434745551213562
-0.4,-0.9,-0.7261311962172119
-0.38,-0.9,-0.6973363145789713
-0.36,-0.9,-0.657544022691298
-0.33999999999999997,-0.9,-0.6073818687680232
-0.31999999999999995,-0.9,-0.5476409399419362
-0.29999999999999993,-0.9,-0.4792633863481246
-0.28,-0.9,-0.4033275628535335
-0.26,-0.9,-0.32103102275653456
-0.24,-0.9,-0.23367163165602758
-0.21999999999999997,-0.9,-0.14262709933563822
-0.19999999999999996,-0.9,-0.0493332524574265
-0.17999999999999994,-0.9,0.04473860928229546
-0.16000000000000003,-0.9,0.1381049164280861
-0.14,-0.9,0.22929322654192766
-0.12,-0.9,0.31686544550006895
-0.09999999999999998,-0.9,0.3994405070964322
-0.07999999999999996,-0.9,0.4757161532816915
-0.05999999999999994,-0.9,0.5444894715506432
-0.040000000000000036,-0.9,0.6046758655909966
-0.020000000000000018,-0.9,0.6553261600151267
0.0,-0.9,0.695641569422946
0.020000000000000018,-0.9,0.7249862957248344
0.040000000000000036,-0.9,0.7428975550573208
0.06000000000000005,-0.9,0.7490928761610655
0.08000000000000007,-0.9,0.7434745551213563
0.10000000000000009,-0.9,0.7261311962172117
0.1200000000000001,-0.9,0.6973363145789714
0.14000000000000012,-0.9,0.657544022691298
0.15999999999999992,-0.9,0.6073818687680234
0.17999999999999994,-0.9,0.5476409399419362
0.19999999999999996,-0.9,0.47926338634812454
0.21999999999999997,-0.9,0.40332756285353344
0.24,-0.9,0.3210310227565345
0.26,-0.9,0.23367163165602753
0.28,-0.9,0.14262709933563814
0.30000000000000004,-0.9,0.049333252457426494
0.32000000000000006,-0.9,-0.04473860928229549
0.3400000000000001,-0.9,-0.1381049164280861
0.3600000000000001,-0.9,-0.22929322654192752
0.3800000000000001,-0.9,-0.31686544550006895
0.40000000000000013,-0.9,-0.3994405070964319
0.41999999999999993,-0.9,-0.47571615328169137
0.43999999999999995,-0.9,-0.5444894715506432
0.45999999999999996,-0.9,-0.6046758655909965
0.48,-0.9,-0.6553261600151269
0.5,-0.9,-0.6956415694229456
0.52,-0.9,-0.7249862957248342
0.54,-0.9,-0.742897555057321
0.56,-0.9,-0.7490928761610655
0.5800000000000001,-0.9,-0.7434745551213562
0.6000000000000001,-0.9,-0.7261311962172117
0.6200000000000001,-0.9,-0.6973363145789712
0.6400000000000001,-0.9,-0.657544022691298
0.6600000000000001,-0.9,-0.6073818687680232
0.6799999999999999,-0.9,-0.5476409399419362
0.7,-0.9,-0.4792633863481244
0.72,-0.9,-0.4033275628535334
0.74,-0.9,-0.3210310227565343
0.76,-0.9,-0.23367163165602733
0.78,-0.9,-0.14262709933563814
0.8,-0.9,-0.04933325245742649
0.8200000000000001,-0.9,0.04473860928229549
0.8400000000000001,-0.9,0.1381049164280861
0.8600000000000001,-0.9,0.22929322654192766
0.8800000000000001,-0.9,0.316865445500069
0.9000000000000001,-0.9,0.3994405070964321
0.9199999999999999,-0.9,0.47571615328169137
0.94,-0.9,0.544489471550643
0.96,-0.9,0.6046758655909965
0.98,-0.9,0.6553261600151267
1.0,-0.9,0.6956415694229461

-1.0,-0.88,0.6864952677282391
-0.98,-0.88,0.7113499888586291
-0.96,-0.88,0.7249862957248325
-0.94,-0.88,0.7271891356216347
-0.92,-0.88,0.7179237684479507
-0.9,-0.88,0.6973363145789713
-0.88,-0.88,0.6657514504605592
-0.86,-0.88,0.6236672882677444
-0.84,-0.88,0.5717475203781689
-0.8200000000000001,-0.88,0.510810952546816
-0.8,-0.88,0.4418185908501283
-0.78,-0.88,0.36585848604610055
-0.76,-0.88,0.28412857436386
-0.74,-0.88,0.19791778533371784
-0.72,-0.88,0.10858571459850887
-0.7,-0.88,0.017541182278119488
-0.6799999999999999,-0.88,-0.07377998496539043
-0.6599999999999999,-0.88,-0.1639375977719694
-0.64,-0.88,-0.25150981673011064
-0.62,-0.88,-0.3351155756337363
-0.6,-0.88,-0.41343636172127607
-0.5800000000000001,-0.88,-0.4852370094095602
-0.56,-0.88,-0.5493851795929162
-0.54,-0.88,-0.6048692173072935
-0.52,-0.88,-0.6508141061333792
-0.5,-0.88,-0.686495267728239
-0.48,-0.88,-0.711349988858629
-0.45999999999999996,-0.88,-0.724986295724833
-0.43999999999999995,-0.88,-0.727189135621635
-0.42000000000000004,-0.88,-0.7179237684479507
-0.4,-0.88,-0.6973363145789712
-0.38,-0.88,-0.6657514504605592
-0.36,-0.88,-0.6236672882677448
-0.33999999999999997,-0.88,-0.5717475203781689
-0.31999999999999995,-0.88,-0.5108109525468164
-0.29999999999999993,-0.88,-0.44181859085012853
-0.28,-0.88,-0.36585848604610083
-0.26,-0.88,-0.28412857436386
-0.24,-0.88,-0.19791778533371787
-0.21999999999999997,-0.88,-0.10858571459850878
-0.19999999999999996,-0.88,-0.017541182278119433
-0.17999999999999994,-0.88,0.07377998496539048
-0.16000000000000003,-0.88,0.16393759777196948
-0.14,-0.88,0.25150981673011075
-0.12,-0.88,0.33511557563373634
-0.09999999999999998,-0.88,0.41343636172127624
-0.07999999999999996,-0.88,0.4852370094095603
-0.05999999999999994,-0.88,0.5493851795929163
-0.040000000000000036,-0.88,0.6048692173072937
-0.020000000000000018,-0.88,0.6508141061333791
0.0,-0.88,0.6864952677282391
0.020000000000000018,-0.88,0.7113499888586288
0.040000000000000036,-0.88,0.7249862957248329
0.06000000000000005,-0.88,0.727189135621635
0.08000000000000007,-0.88,0.7179237684479507
0.10000000000000009,-0.88,0.6973363145789714
0.1200000000000001,-0.88,0.6657514504605591
0.14000000000000012,-0.88,0.6236672882677446
0.15999999999999992,-0.88,0.5717475203781689
0.17999999999999994,-0.88,0.5108109525468163
0.19999999999999996,-0.88,0.4418185908501285
0.21999999999999997,-0.88,0.3658584860461008
0.24,-0.88,0.28412857436386
0.26,-0.88,0.1979177853337178
0.28,-0.88,0.10858571459850881
0.30000000000000004,-0.88,0.01754118227811939
0.32000000000000006,-0.88,-0.07377998496539051
0.3400000000000001,-0.88,-0.16393759777196945
0.3600000000000001,-0.88,-0.25150981673011075
0.3800000000000001,-0.88,-0.3351155756337362
0.40000000000000013,-0.88,-0.4134363617212762
0.41999999999999993,-0.88,-0.48523700940956027
0.43999999999999995,-0.88,-0.5493851795929162
0.45999999999999996,-0.88,-0.6048692173072938
0.48,-0.88,-0.650814106133379
0.5,-0.88,-0.6864952677282389
0.52,-0.88,-0.7113499888586291
0.54,-0.88,-0.7249862957248328
0.56,-0.88,-0.727189135621635
0.5800000000000001,-0.88,-0.7179237684479507
0.6000000000000001,-0.88,-0.6973363145789712
0.6200000000000001,-0.88,-0.665751450460559
0.6400000000000001,-0.88,-0.6236672882677445
0.6600000000000001,-0.88,-0.5717475203781689
0.6799999999999999,-0.88,-0.5108109525468162
0.7,-0.88,-0.4418185908501284
0.72,-0.88,-0.3658584860461005
0.74,-0.88,-0.28412857436385974
0.76,-0.88,-0.19791778533371782
0.78,-0.88,-0.10858571459850878
0.8,-0.88,-0.017541182278119363
0.8200000000000001,-0.88,0.07377998496539048
0.8400000000000001,-0.88,0.16393759777196956
0.8600000000000001,-0.88,0.25150981673011086
0.8800000000000001,-0.88,0.33511557563373634
0.9000000000000001,-0.88,0.4134363617212762
0.9199999999999999,-0.88,0.48523700940956016
0.94,-0.88,0.5493851795929163
0.96,-0.88,0.6048692173072936
0.98,-0.88,0.6508141061333794
1.0,-0.88,0.6864952677282391

-1.0,-0.86,0.6665225255690627
-0.98,-0.86,0.6864952677282378
-0.96,-0.86,0.6956415694229433
-0.94,-0.86,0.6938171880117181
-0.92,-0.86,0.6810508950792501
-0.9,-0.86,0.6575440226912981
-0.88,-0.86,0.6236672882677445
-0.86,-0.86,0.5799549481474299
-0.84,-0.86,0.5270963720465371
-0.8200000000000001,-0.86,0.46592517128636124
-0.8,-0.86,0.39740605224479253
-0.78,-0.86,0.32261960236045506
-0.76,-0.86,0.24274524862328414
-0.74,-0.86,0.15904265730634146
-0.72,-0.86,0.07283186827619925
-0.7,-0.86,-0.014527522824308043
-0.6799999999999999,-0.86,-0.10165780621155443
-0.6599999999999999,-0.86,-0.18718488526741495
-0.64,-0.86,-0.2697599468637781
-0.62,-0.86,-0.3480807329513179
-0.6,-0.86,-0.4209120779468643
-0.5800000000000001,-0.86,-0.487105388032501
-0.56,-0.86,-0.545616755166211
-0.54,-0.86,-0.5955234201352992
-0.52,-0.86,-0.6360383250204062
-0.5,-0.86,-0.6665225255690627
-0.48,-0.86,-0.6864952677282381
-0.45999999999999996,-0.86,-0.6956415694229435
-0.43999999999999995,-0.86,-0.693817188011718
-0.42000000000000004,-0.86,-0.68105089507925
-0.4,-0.86,-0.6575440226912981
-0.38,-0.86,-0.6236672882677446
-0.36,-0.86,-0.57995494814743
-0.33999999999999997,-0.86,-0.5270963720465378
-0.31999999999999995,-0.86,-0.4659251712863615
-0.29999999999999993,-0.86,-0.39740605224479275
-0.28,-0.86,-0.3226196023604551
-0.26,-0.86,-0.24274524862328425
-0.24,-0.86,-0.15904265730634137
-0.21999999999999997,-0.86,-0.07283186827619922
-0.19999999999999996,-0.86,0.014527522824308057
-0.17999999999999994,-0.86,0.1016578062115545
-0.16000000000000003,-0.86,0.18718488526741503
-0.14,-0.86,0.26975994686377813
-0.12,-0.86,0.34808073295131803
-0.09999999999999998,-0.86,0.42091207794686447
-0.07999999999999996,-0.86,0.4871053880325012
-0.05999999999999994,-0.86,0.5456167551662112
-0.040000000000000036,-0.86,0.5955234201352991
-0.020000000000000018,-0.86,0.6360383250204064
0.0,-0.86,0.6665225255690626
0.020000000000000018,-0.86,0.6864952677282379
0.040000000000000036,-0.86,0.6956415694229434
0.06000000000000005,-0.86,0.6938171880117181
0.08000000000000007,-0.86,0.6810508950792501
0.10000000000000009,-0.86,0.6575440226912979
0.1200000000000001,-0.86,0.6236672882677445
0.14000000000000012,-0.86,0.5799549481474299
0.15999999999999992,-0.86,0.5270963720465377
0.17999999999999994,-0.86,0.46592517128636135
0.19999999999999996,-0.86,0.3974060522447927
0.21999999999999997,-0.86,0.32261960236045506
0.24,-0.86,0.24274524862328414
0.26,-0.86,0.1590426573063414
0.28,-0.86,0.07283186827619918
0.30000000000000004,-0.86,-0.014527522824308092
0.32000000000000006,-0.86,-0.1016578062115545
0.3400000000000001,-0.86,-0.18718488526741503
0.3600000000000001,-0.86,-0.269759946863778
0.3800000000000001,-0.86,-0.3480807329513179
0.40000000000000013,-0.86,-0.4209120779468644
0.41999999999999993,-0.86,-0.4871053880325011