TITLE = "Solution" 
VARIABLES = "x", "y", "sol" 
ZONE STRANDID=1, SOLUTIONTIME= 0.8900000000000006, I= 101, J =101, DATAPACKING=POINT 
-1.0,-1.0,0.15346911166463495
-0.98,-1.0,0.21381558059156652
-0.96,-1.0,0.27079005008533225
-0.94,-1.0,0.3234939987271171
-0.92,-1.0,0.3710962537630278
-0.9,-1.0,0.412846099194939
-0.88,-1.0,0.44808511502024057
-0.86,-1.0,0.4762575609085994
-0.84,-1.0,0.49691914055895287
-0.8200000000000001,-1.0,0.5097440085175853
-0.8,-1.0,0.5145299089555845
-0.78,-1.0,0.5112013653640854
-0.76,-1.0,0.49981087086390186
-0.74,-1.0,0.4805380603576527
-0.72,-1.0,0.45368687758004034
-0.7,-1.0,0.41968078172358714
-0.6799999999999999,-1.0,0.37905606923420576
-0.6599999999999999,-1.0,0.332453416095881
-0.64,-1.0,0.2806077739876798
-0.62,-1.0,0.22433677965673407
-0.6,-1.0,0.1645278602983052
-0.5800000000000001,-1.0,0.10212423829879239
-0.56,-1.0,0.038110056055244756
-0.54,-1.0,-0.026505144538138153
-0.52,-1.0,-0.09070234316874881
-0.5,-1.0,-0.15346911166463492
-0.48,-1.0,-0.21381558059156636
-0.45999999999999996,-1.0,-0.2707900500853323
-0.43999999999999995,-1.0,-0.3234939987271172
-0.42000000000000004,-1.0,-0.3710962537630279
-0.4,-1.0,-0.41284609919493914
-0.38,-1.0,-0.4480851150202405
-0.36,-1.0,-0.47625756090859944
-0.33999999999999997,-1.0,-0.49691914055895303
-0.31999999999999995,-1.0,-0.5097440085175854
-0.29999999999999993,-1.0,-0.5145299089555845
-0.28,-1.0,-0.5112013653640856
-0.26,-1.0,-0.49981087086390197
-0.24,-1.0,-0.4805380603576528
-0.21999999999999997,-1.0,-0.4536868775800405
-0.19999999999999996,-1.0,-0.419680781723587
-0.17999999999999994,-1.0,-0.37905606923420576
-0.16000000000000003,-1.0,-0.332453416095881
-0.14,-1.0,-0.28060777398767983
-0.12,-1.0,-0.22433677965673401
-0.09999999999999998,-1.0,-0.16452786029830513
-0.07999999999999996,-1.0,-0.10212423829879239
-0.05999999999999994,-1.0,-0.03811005605524466
-0.040000000000000036,-1.0,0.026505144538138195
-0.020000000000000018,-1.0,0.0907023431687489
0.0,-1.0,0.15346911166463503
0.020000000000000018,-1.0,0.2138155805915663
0.040000000000000036,-1.0,0.2707900500853323
0.06000000000000005,-1.0,0.3234939987271173
0.08000000000000007,-1.0,0.371096253763028
0.10000000000000009,-1.0,0.4128460991949392
0.1200000000000001,-1.0,0.4480851150202406
0.14000000000000012,-1.0,0.47625756090859933
0.15999999999999992,-1.0,0.4969191405589531
0.17999999999999994,-1.0,0.5097440085175854
0.19999999999999996,-1.0,0.5145299089555844
0.21999999999999997,-1.0,0.5112013653640858
0.24,-1.0,0.4998108708639021
0.26,-1.0,0.4805380603576527
0.28,-1.0,0.45368687758004034
0.30000000000000004,-1.0,0.41968078172358697
0.32000000000000006,-1.0,0.37905606923420593
0.3400000000000001,-1.0,0.3324534160958811
0.3600000000000001,-1.0,0.2806077739876798
0.3800000000000001,-1.0,0.224336779656734
0.40000000000000013,-1.0,0.16452786029830505
0.41999999999999993,-1.0,0.1021242382987923
0.43999999999999995,-1.0,0.038110056055244715
0.45999999999999996,-1.0,-0.026505144538138212
0.48,-1.0,-0.09070234316874887
0.5,-1.0,-0.15346911166463495
0.52,-1.0,-0.2138155805915664
0.54,-1.0,-0.27079005008533225
0.56,-1.0,-0.32349399872711726
0.5800000000000001,-1.0,-0.37109625376302796
0.6000000000000001,-1.0,-0.412846099194939
0.6200000000000001,-1.0,-0.44808511502024034
0.6400000000000001,-1.0,-0.4762575609085992
0.6600000000000001,-1.0,-0.4969191405589529
0.6799999999999999,-1.0,-0.5097440085175855
0.7,-1.0,-0.5145299089555846
0.72,-1.0,-0.5112013653640857
0.74,-1.0,-0.49981087086390197
0.76,-1.0,-0.4805380603576528
0.78,-1.0,-0.4536868775800402
0.8,-1.0,-0.4196807817235872
0.8200000000000001,-1.0,-0.3790560692342058
0.8400000000000001,-1.0,-0.3324534160958811
0.8600000000000001,-1.0,-0.2806077739876797
0.8800000000000001,-1.0,-0.22433677965673388
0.9000000000000001,-1.0,-0.16452786029830505
0.9199999999999999,-1.0,-0.1021242382987923
0.94,-1.0,-0.03811005605524467
0.96,-1.0,0.026505144538138264
0.98,-1.0,0.09070234316874895
1.0,-1.0,0.15346911166463495

-1.0,-0.98,0.2138155805915665
-0.98,-0.98,0.2785550287221546
-0.96,-0.98,0.3389014976490858
-0.94,-0.98,0.39390328750814974
-0.92,-0.98,0.44269298721679196
-0.9,-0.98,0.4845011540650535
-0.88,-0.98,0.5186684482867482
-0.86,-0.98,0.5446560312414479
-0.84,-0.98,0.5620540632217275
-0.8200000000000001,-0.98,0.5705881668701778
-0.8,-0.98,0.5701237542742358
-0.78,-0.98,0.5606681494979676
-0.76,-0.98,0.5423704730771984
-0.74,-0.98,0.515519290299586
-0.72,-0.98,0.48053806035765245
-0.7,-0.98,0.4379784581443558
-0.6799999999999999,-0.98,0.3885116740104735
-0.6599999999999999,-0.98,0.33291782869182135
-0.64,-0.98,0.27207367033922847
-0.62,-0.98,0.20693874767645334
-0.6,-0.98,0.13854027734360486
-0.5800000000000001,-0.98,0.06795694407709753
-0.56,-0.98,-0.0036981107930163203
-0.54,-0.98,-0.0752948442467801
-0.52,-0.98,-0.1457041330278125
-0.5,-0.98,-0.21381558059156633
-0.48,-0.98,-0.2785550287221547
-0.45999999999999996,-0.98,-0.3389014976490859
-0.43999999999999995,-0.98,-0.39390328750814985
-0.42000000000000004,-0.98,-0.4426929872167921
-0.4,-0.98,-0.4845011540650534
-0.38,-0.98,-0.5186684482867481
-0.36,-0.98,-0.544656031241448
-0.33999999999999997,-0.98,-0.5620540632217277
-0.31999999999999995,-0.98,-0.5705881668701777
-0.29999999999999993,-0.98,-0.5701237542742358
-0.28,-0.98,-0.5606681494979677
-0.26,-0.98,-0.5423704730771985
-0.24,-0.98,-0.5155192902995862
-0.21999999999999997,-0.98,-0.48053806035765245
-0.19999999999999996,-0.98,-0.4379784581443557
-0.17999999999999994,-0.98,-0.3885116740104736
-0.16000000000000003,-0.98,-0.33291782869182146
-0.14,-0.98,-0.27207367033922836
-0.12,-0.98,-0.20693874767645323
-0.09999999999999998,-0.98,-0.13854027734360486
-0.07999999999999996,-0.98,-0.06795694407709747
-0.05999999999999994,-0.98,0.003698110793016355
-0.040000000000000036,-0.98,0.07529484424678018
-0.020000000000000018,-0.98,0.14570413302781263
0.0,-0.98,0.2138155805915663
0.020000000000000018,-0.98,0.2785550287221547
0.040000000000000036,-0.98,0.338901497649086
0.06000000000000005,-0.98,0.39390328750814996
0.08000000000000007,-0.98,0.44269298721679223
0.10000000000000009,-0.98,0.4845011540650536
0.1200000000000001,-0.98,0.5186684482867481
0.14000000000000012,-0.98,0.544656031241448
0.15999999999999992,-0.98,0.5620540632217276
0.17999999999999994,-0.98,0.5705881668701774
0.19999999999999996,-0.98,0.5701237542742361
0.21999999999999997,-0.98,0.5606681494979676
0.24,-0.98,0.5423704730771984
0.26,-0.98,0.515519290299586
0.28,-0.98,0.48053806035765245
0.30000000000000004,-0.98,0.4379784581443558
0.32000000000000006,-0.98,0.3885116740104736
0.3400000000000001,-0.98,0.33291782869182124
0.3600000000000001,-0.98,0.27207367033922836
0.3800000000000001,-0.98,0.2069387476764532
0.40000000000000013,-0.98,0.13854027734360475
0.41999999999999993,-0.98,0.06795694407709753
0.43999999999999995,-0.98,-0.0036981107930163792
0.45999999999999996,-0.98,-0.07529484424678018
0.48,-0.98,-0.14570413302781257
0.5,-0.98,-0.21381558059156638
0.52,-0.98,-0.2785550287221546
0.54,-0.98,-0.33890149764908595
0.56,-0.98,-0.39390328750814985
0.5800000000000001,-0.98,-0.442692987216792
0.6000000000000001,-0.98,-0.4845011540650532
0.6200000000000001,-0.98,-0.518668448286748
0.6400000000000001,-0.98,-0.5446560312414479
0.6600000000000001,-0.98,-0.5620540632217278
0.6799999999999999,-0.98,-0.5705881668701777
0.7,-0.98,-0.570123754274236
0.72,-0.98,-0.5606681494979675
0.74,-0.98,-0.5423704730771985
0.76,-0.98,-0.5155192902995859
0.78,-0.98,-0.4805380603576526
0.8,-0.98,-0.4379784581443559
0.8200000000000001,-0.98,-0.3885116740104736
0.8400000000000001,-0.98,-0.33291782869182124
0.8600000000000001,-0.98,-0.27207367033922825
0.8800000000000001,-0.98,-0.20693874767645323
0.9000000000000001,-0.98,-0.13854027734360477
0.9199999999999999,-0.98,-0.06795694407709747
0.94,-0.98,0.0036981107930164417
0.96,-0.98,0.07529484424678026
0.98,-0.98,0.14570413302781254
1.0,-0.98,0.2138155805915665

-1.0,-0.96,0.27079005008533213
-0.98,-0.96,0.3389014976490858
-0.96,-0.96,0.4016682661449722
-0.94,-0.96,0.45810048613876075
-0.92,-0.96,0.5073081878101756
-0.9,-0.96,0.5485153363086013
-0.88,-0.96,0.5810720702862608
-0.86,-0.96,0.6044649505998763
-0.84,-0.96,0.6183250575526729
-0.8200000000000001,-0.96,0.622433808978378
-0.8,-0.96,0.6167264074125604
-0.78,-0.96,0.6012928619873487
-0.76,-0.96,0.5763765689336516
-0.74,-0.96,0.542370473077198
-0.72,-0.96,0.4998108708639014
-0.7,-0.96,0.44936895264453885
-0.6799999999999999,-0.96,0.3918402176019712
-0.6599999999999999,-0.96,0.32813192825382065
-0.64,-0.96,0.2592488023805948
-0.62,-0.96,0.18627716802609925
-0.6,-0.96,0.1103678314552457
-0.5800000000000001,-0.96,0.03271792825179619
-0.56,-0.96,-0.04544795622492724
-0.54,-0.96,-0.1228970992826906
-0.52,-0.96,-0.19840808166959759
-0.5,-0.96,-0.27079005008533225
-0.48,-0.96,-0.33890149764908584
-0.45999999999999996,-0.96,-0.4016682661449723
-0.43999999999999995,-0.96,-0.45810048613876087
-0.42000000000000004,-0.96,-0.5073081878101755
-0.4,-0.96,-0.5485153363086013
-0.38,-0.96,-0.5810720702862608
-0.36,-0.96,-0.6044649505998763
-0.33999999999999997,-0.96,-0.6183250575526729
-0.31999999999999995,-0.96,-0.622433808978378
-0.29999999999999993,-0.96,-0.6167264074125604
-0.28,-0.96,-0.6012928619873485
-0.26,-0.96,-0.5763765689336517
-0.24,-0.96,-0.542370473077198
-0.21999999999999997,-0.96,-0.49981087086390125
-0.19999999999999996,-0.96,-0.449368952644539
-0.17999999999999994,-0.96,-0.39184021760197124
-0.16000000000000003,-0.96,-0.3281319282538205
-0.14,-0.96,-0.2592488023805946
-0.12,-0.96,-0.18627716802609925
-0.09999999999999998,-0.96,-0.11036783145524569
-0.07999999999999996,-0.96,-0.032717928251796174
-0.05999999999999994,-0.96,0.04544795622492734
-0.040000000000000036,-0.96,0.12289709928269074
-0.020000000000000018,-0.96,0.19840808166959759
0.0,-0.96,0.27079005008533225
0.020000000000000018,-0.96,0.33890149764908595
0.040000000000000036,-0.96,0.4016682661449724
0.06000000000000005,-0.96,0.458100486138761
0.08000000000000007,-0.96,0.5073081878101757
0.10000000000000009,-0.96,0.5485153363086012
0.1200000000000001,-0.96,0.5810720702862608
0.14000000000000012,-0.96,0.6044649505998763
0.15999999999999992,-0.96,0.6183250575526726
0.17999999999999994,-0.96,0.6224338089783782
0.19999999999999996,-0.96,0.6167264074125604
0.21999999999999997,-0.96,0.6012928619873487
0.24,-0.96,0.5763765689336515
0.26,-0.96,0.5423704730771981
0.28,-0.96,0.4998108708639013
0.30000000000000004,-0.96,0.44936895264453897
0.32000000000000006,-0.96,0.391840217601971
0.3400000000000001,-0.96,0.3281319282538206
0.3600000000000001,-0.96,0.2592488023805946
0.3800000000000001,-0.96,0.18627716802609914
0.40000000000000013,-0.96,0.11036783145524577
0.41999999999999993,-0.96,0.03271792825179615
0.43999999999999995,-0.96,-0.04544795622492734
0.45999999999999996,-0.96,-0.12289709928269071
0.48,-0.96,-0.19840808166959764
0.5,-0.96,-0.27079005008533213
0.52,-0.96,-0.33890149764908595
0.54,-0.96,-0.4016682661449722
0.56,-0.96,-0.45810048613876075
0.5800000000000001,-0.96,-0.5073081878101753
0.6000000000000001,-0.96,-0.548515336308601
0.6200000000000001,-0.96,-0.5810720702862606
0.6400000000000001,-0.96,-0.6044649505998765
0.6600000000000001,-0.96,-0.6183250575526728
0.6799999999999999,-0.96,-0.6224338089783781
0.7,-0.96,-0.6167264074125601
0.72,-0.96,-0.6012928619873485
0.74,-0.96,-0.5763765689336514
0.76,-0.96,-0.5423704730771982
0.78,-0.96,-0.4998108708639016
0.8,-0.96,-0.449368952644539
0.8200000000000001,-0.96,-0.391840217601971
0.8400000000000001,-0.96,-0.32813192825382037
0.8600000000000001,-0.96,-0.2592488023805946
0.8800000000000001,-0.96,-0.18627716802609917
0.9000000000000001,-0.96,-0.11036783145524567
0.9199999999999999,-0.96,-0.03271792825179607
0.94,-0.96,0.04544795622492741
0.96,-0.96,0.12289709928269071
0.98,-0.96,0.19840808166959775
1.0,-0.96,0.27079005008533213

-1.0,-0.94,0.32349399872711704
-0.98,-0.94,0.39390328750814974
-0.96,-0.94,0.45810048613876075
-0.94,-0.94,0.5150731664469981
-0.92,-0.94,0.5639228352305701
-0.9,-0.94,0.6038791040313829
-0.88,-0.94,0.6343118386217295
-0.86,-0.94,0.6547410965974859
-0.84,-0.94,0.664844696356527
-0.8200000000000001,-0.94,0.6644632980950553
-0.8,-0.94,0.6536029166914904
-0.78,-0.94,0.6324348268482439
-0.76,-0.94,0.6012928619873479
-0.74,-0.94,0.5606681494979666
-0.72,-0.94,0.5112013653640843
-0.7,-0.94,0.45367263032151656
-0.6799999999999999,-0.94,0.3889892068878858
-0.6599999999999999,-0.94,0.31817119129074445
-0.64,-0.94,0.24233542594069146
-0.62,-0.94,0.1626778861593872
-0.6,-0.94,0.08045481893429068
-0.5800000000000001,-0.94,-0.0030370688467789737
-0.56,-0.94,-0.086481060237878
-0.54,-0.94,-0.16856119364774466
-0.52,-0.94,-0.24798301634021025
-0.5,-0.94,-0.3234939987271171
-0.48,-0.94,-0.39390328750814985
-0.45999999999999996,-0.94,-0.4581004861387608
-0.43999999999999995,-0.94,-0.515073166446998
-0.42000000000000004,-0.94,-0.56392283523057
-0.4,-0.94,-0.6038791040313828
-0.38,-0.94,-0.6343118386217292
-0.36,-0.94,-0.6547410965974859
-0.33999999999999997,-0.94,-0.6648446963565269
-0.31999999999999995,-0.94,-0.6644632980950552
-0.29999999999999993,-0.94,-0.6536029166914904
-0.28,-0.94,-0.6324348268482441
-0.26,-0.94,-0.601292861987348
-0.24,-0.94,-0.5606681494979666
-0.21999999999999997,-0.94,-0.5112013653640846
-0.19999999999999996,-0.94,-0.4536726303215166
-0.17999999999999994,-0.94,-0.38898920688788563
-0.16000000000000003,-0.94,-0.3181711912907443
-0.14,-0.94,-0.24233542594069143
-0.12,-0.94,-0.16267788615938716
-0.09999999999999998,-0.94,-0.08045481893429068
-0.07999999999999996,-0.94,0.00303706884677905
-0.05999999999999994,-0.94,0.08648106023787813
-0.040000000000000036,-0.94,0.1685611936477447
-0.020000000000000018,-0.94,0.24798301634021025
0.0,-0.94,0.3234939987271172
0.020000000000000018,-0.94,0.39390328750814996
0.040000000000000036,-0.94,0.4581004861387609
0.06000000000000005,-0.94,0.5150731664469981
0.08000000000000007,-0.94,0.5639228352305701
0.10000000000000009,-0.94,0.6038791040313829
0.1200000000000001,-0.94,0.6343118386217296
0.14000000000000012,-0.94,0.6547410965974857
0.15999999999999992,-0.94,0.6648446963565271
0.17999999999999994,-0.94,0.6644632980950553
0.19999999999999996,-0.94,0.6536029166914905
0.21999999999999997,-0.94,0.6324348268482439
0.24,-0.94,0.6012928619873479
0.26,-0.94,0.5606681494979666
0.28,-0.94,0.5112013653640843
0.30000000000000004,-0.94,0.4536726303215164
0.32000000000000006,-0.94,0.38898920688788574
0.3400000000000001,-0.94,0.3181711912907443
0.3600000000000001,-0.94,0.24233542594069132
0.3800000000000001,-0.94,0.1626778861593873
0.40000000000000013,-0.94,0.08045481893429064
0.41999999999999993,-0.94,-0.003037068846779043
0.43999999999999995,-0.94,-0.08648106023787812
0.45999999999999996,-0.94,-0.16856119364774472
0.48,-0.94,-0.24798301634021014
0.5,-0.94,-0.32349399872711715
0.52,-0.94,-0.39390328750814974
0.54,-0.94,-0.45810048613876075
0.56,-0.94,-0.5150731664469979
0.5800000000000001,-0.94,-0.5639228352305699
0.6000000000000001,-0.94,-0.6038791040313827
0.6200000000000001,-0.94,-0.6343118386217296
0.6400000000000001,-0.94,-0.6547410965974858
0.6600000000000001,-0.94,-0.6648446963565271
0.6799999999999999,-0.94,-0.6644632980950551
0.7,-0.94,-0.6536029166914904
0.72,-0.94,-0.6324348268482438
0.74,-0.94,-0.6012928619873481
0.76,-0.94,-0.560668149497967
0.78,-0.94,-0.5112013653640846
0.8,-0.94,-0.4536726303215164
0.8200000000000001,-0.94,-0.3889892068878855
0.8400000000000001,-0.94,-0.3181711912907442
0.8600000000000001,-0.94,-0.24233542594069132
0.8800000000000001,-0.94,-0.16267788615938716
0.9000000000000001,-0.94,-0.08045481893429055
0.9199999999999999,-0.94,0.0030370688467791333
0.94,-0.94,0.08648106023787813
0.96,-0.94,0.16856119364774483
0.98,-0.94,0.24798301634021014
1.0,-0.94,0.32349399872711704

-1.0,-0.92,0.37109625376302785
-0.98,-0.92,0.44269298721679196
-0.96,-0.92,0.5073081878101756
-0.94,-0.92,0.5639228352305701
-0.92,-0.92,0.6116440826682052
-0.9,-0.92,0.6497193375436983
-0.88,-0.92,0.6775481303426081
-0.86,-0.92,0.6946915843783804
-0.84,-0.92,0.7008793371398683
-0.8200000000000001,-0.92,0.6960138040696389
-0.8,-0.92,0.6801717175307385
-0.78,-0.92,0.6536029166914894
-0.76,-0.92,0.6167264074125587
-0.74,-0.92,0.570123754274234
-0.72,-0.92,0.5145299089555817
-0.7,-0.92,0.4508216196074311
-0.6799999999999999,-0.92,0.3800036040102897
-0.6599999999999999,-0.92,0.30319270457475656
-0.64,-0.92,0.22160027506953694
-0.62,-0.92,0.13651307684888295
-0.6,-0.92,0.04927298585736259
-0.5800000000000001,-0.92,-0.03874416955538343
-0.56,-0.92,-0.12615030626959628
-0.54,-0.92,-0.2115669772953975
-0.52,-0.92,-0.2936471107052641
-0.5,-0.92,-0.37109625376302785
-0.48,-0.92,-0.44269298721679196
-0.45999999999999996,-0.92,-0.5073081878101755
-0.43999999999999995,-0.92,-0.56392283523057
-0.42000000000000004,-0.92,-0.6116440826682052
-0.4,-0.92,-0.6497193375436981
-0.38,-0.92,-0.677548130342608
-0.36,-0.92,-0.6946915843783801
-0.33999999999999997,-0.92,-0.7008793371398683
-0.31999999999999995,-0.92,-0.6960138040696389
-0.29999999999999993,-0.92,-0.6801717175307386
-0.28,-0.92,-0.6536029166914895
-0.26,-0.92,-0.6167264074125588
-0.24,-0.92,-0.5701237542742341
-0.21999999999999997,-0.92,-0.5145299089555817
-0.19999999999999996,-0.92,-0.4508216196074309
-0.17999999999999994,-0.92,-0.3800036040102896
-0.16000000000000003,-0.92,-0.30319270457475667
-0.14,-0.92,-0.22160027506953694
-0.12,-0.92,-0.136513076848883
-0.09999999999999998,-0.92,-0.04927298585736256
-0.07999999999999996,-0.92,0.038744169555383554
-0.05999999999999994,-0.92,0.1261503062695963
-0.040000000000000036,-0.92,0.21156697729539753
-0.020000000000000018,-0.92,0.2936471107052642
0.0,-0.92,0.371096253763028
0.020000000000000018,-0.92,0.44269298721679207
0.040000000000000036,-0.92,0.5073081878101754
0.06000000000000005,-0.92,0.5639228352305702
0.08000000000000007,-0.92,0.6116440826682055
0.10000000000000009,-0.92,0.6497193375436985
0.1200000000000001,-0.92,0.6775481303426079
0.14000000000000012,-0.92,0.6946915843783805
0.15999999999999992,-0.92,0.7008793371398683
0.17999999999999994,-0.92,0.6960138040696391
0.19999999999999996,-0.92,0.6801717175307384
0.21999999999999997,-0.92,0.6536029166914894
0.24,-0.92,0.6167264074125588
0.26,-0.92,0.5701237542742339
0.28,-0.92,0.5145299089555815
0.30000000000000004,-0.92,0.45082161960743106
0.32000000000000006,-0.92,0.3800036040102896
0.3400000000000001,-0.92,0.3031927045747565
0.3600000000000001,-0.92,0.22160027506953706
0.3800000000000001,-0.92,0.13651307684888295
0.40000000000000013,-0.92,0.04927298585736256
0.41999999999999993,-0.92,-0.038744169555383554
0.43999999999999995,-0.92,-0.12615030626959634
0.45999999999999996,-0.92,-0.21156697729539745
0.48,-0.92,-0.29364711070526417
0.5,-0.92,-0.37109625376302785
0.52,-0.92,-0.44269298721679196
0.54,-0.92,-0.5073081878101753
0.56,-0.92,-0.5639228352305699
0.5800000000000001,-0.92,-0.611644082668205
0.6000000000000001,-0.92,-0.6497193375436985
0.6200000000000001,-0.92,-0.677548130342608
0.6400000000000001,-0.92,-0.6946915843783804
0.6600000000000001,-0.92,-0.7008793371398682
0.6799999999999999,-0.92,-0.6960138040696389
0.7,-0.92,-0.6801717175307384
0.72,-0.92,-0.6536029166914896
0.74,-0.92,-0.6167264074125591
0.76,-0.92,-0.5701237542742341
0.78,-0.92,-0.5145299089555814
0.8,-0.92,-0.4508216196074309
0.8200000000000001,-0.92,-0.3800036040102896
0.8400000000000001,-0.92,-0.3031927045747565
0.8600000000000001,-0.92,-0.22160027506953692
0.8800000000000001,-0.92,-0.13651307684888284
0.9000000000000001,-0.92,-0.04927298585736245
0.9199999999999999,-0.92,0.03874416955538358
0.94,-0.92,0.12615030626959645
0.96,-0.92,0.21156697729539745
0.98,-0.92,0.2936471107052641
1.0,-0.92,0.37109625376302785

-1.0,-0.9,0.4128460991949389
-0.98,-0.9,0.4845011540650533
-0.96,-0.9,0.5485153363086012
-0.94,-0.9,0.6038791040313827
-0.92,-0.9,0.6497193375436983
-0.9,-0.9,0.6853131089794305
-0.88,-0.9,0.7100990833003494
-0.86,-0.9,0.7236863708849907
-0.84,-0.9,0.725860692091492
-0.8200000000000001,-0.9,0.716587756575551
-0.8,-0.9,0.6960138040696375
-0.78,-0.9,0.6644632980950529
-0.76,-0.9,0.6224338089783749
-0.74,-0.9,0.5705881668701736
-0.72,-0.9,0.5097440085175806
-0.7,-0.9,0.44086088264435475
-0.6799999999999999,-0.9,0.3650251172943019
-0.6599999999999999,-0.9,0.2834326877890823
-0.64,-0.9,0.19737035548294818
-0.62,-0.9,0.10819537476751245
-0.6,-0.9,0.017314088359208956
-0.5800000000000001,-0.9,-0.07384025156545458
-0.56,-0.9,-0.16383008661290274
-0.54,-0.9,-0.2512362233271156
-0.52,-0.9,-0.3346802147182151
-0.5,-0.9,-0.41284609919493886
-0.48,-0.9,-0.48450115406505323
-0.45999999999999996,-0.9,-0.548515336308601
-0.43999999999999995,-0.9,-0.6038791040313828
-0.42000000000000004,-0.9,-0.6497193375436983
-0.4,-0.9,-0.6853131089794305
-0.38,-0.9,-0.7100990833003491
-0.36,-0.9,-0.7236863708849905
-0.33999999999999997,-0.9,-0.725860692091492
-0.31999999999999995,-0.9,-0.7165877565755511
-0.29999999999999993,-0.9,-0.6960138040696376
-0.28,-0.9,-0.6644632980950529
-0.26,-0.9,-0.622433808978375
-0.24,-0.9,-0.5705881668701736
-0.21999999999999997,-0.9,-0.5097440085175804
-0.19999999999999996,-0.9,-0.4408608826443547
-0.17999999999999994,-0.9,-0.365025117294302
-0.16000000000000003,-0.9,-0.2834326877890823
-0.14,-0.9,-0.1973703554829483
-0.12,-0.9,-0.10819537476751248
-0.09999999999999998,-0.9,-0.017314088359208845
-0.07999999999999996,-0.9,0.07384025156545457
-0.05999999999999994,-0.9,0.16383008661290285
-0.040000000000000036,-0.9,0.25123622332711576
-0.020000000000000018,-0.9,0.33468021471821524
0.0,-0.9,0.412846099194939
0.020000000000000018,-0.9,0.4845011540650531
0.040000000000000036,-0.9,0.5485153363086014
0.06000000000000005,-0.9,0.6038791040313829
0.08000000000000007,-0.9,0.6497193375436985
0.10000000000000009,-0.9,0.6853131089794305
0.1200000000000001,-0.9,0.7100990833003495
0.14000000000000012,-0.9,0.7236863708849904
0.15999999999999992,-0.9,0.7258606920914922
0.17999999999999994,-0.9,0.7165877565755508
0.19999999999999996,-0.9,0.6960138040696375
0.21999999999999997,-0.9,0.664463298095053
0.24,-0.9,0.6224338089783749
0.26,-0.9,0.5705881668701733
0.28,-0.9,0.5097440085175806
0.30000000000000004,-0.9,0.44086088264435475
0.32000000000000006,-0.9,0.36502511729430187
0.3400000000000001,-0.9,0.2834326877890824
0.3600000000000001,-0.9,0.19737035548294823
0.3800000000000001,-0.9,0.10819537476751247
0.40000000000000013,-0.9,0.01731408835920883
0.41999999999999993,-0.9,-0.07384025156545464
0.43999999999999995,-0.9,-0.16383008661290277
0.45999999999999996,-0.9,-0.2512362233271157
0.48,-0.9,-0.3346802147182151
0.5,-0.9,-0.4128460991949389
0.52,-0.9,-0.48450115406505306
0.54,-0.9,-0.548515336308601
0.56,-0.9,-0.6038791040313827
0.5800000000000001,-0.9,-0.6497193375436985
0.6000000000000001,-0.9,-0.6853131089794304
0.6200000000000001,-0.9,-0.7100990833003494
0.6400000000000001,-0.9,-0.7236863708849902
0.6600000000000001,-0.9,-0.725860692091492
0.6799999999999999,-0.9,-0.7165877565755508
0.7,-0.9,-0.6960138040696376
0.72,-0.9,-0.6644632980950531
0.74,-0.9,-0.6224338089783751
0.76,-0.9,-0.5705881668701733
0.78,-0.9,-0.5097440085175804
0.8,-0.9,-0.4408608826443547
0.8200000000000001,-0.9,-0.3650251172943018
0.8400000000000001,-0.9,-0.2834326877890823
0.8600000000000001,-0.9,-0.19737035548294815
0.8800000000000001,-0.9,-0.10819537476751234
0.9000000000000001,-0.9,-0.017314088359208776
0.9199999999999999,-0.9,0.07384025156545469
0.94,-0.9,0.16383008661290274
0.96,-0.9,0.25123622332711565
0.98,-0.9,0.33468021471821513
1.0,-0.9,0.4128460991949389

-1.0,-0.88,0.44808511502024034
-0.98,-0.88,0.5186684482867481
-0.96,-0.88,0.5810720702862606
-0.94,-0.88,0.6343118386217295
-0.92,-0.88,0.6775481303426081
-0.9,-0.88,0.7100990833003494
-0.88,-0.88,0.7314513495218132
-0.86,-0.88,0.7412681910134609
-0.84,-0.88,0.7393947903206728
-0.8200000000000001,-0.88,0.7258606920914901
-0.8,-0.88,0.7008793371398648
-0.78,-0.88,0.6648446963565225
-0.76,-0.88,0.6183250575526676
-0.74,-0.88,0.5620540632217217
-0.72,-0.88,0.4969191405589467
-0.7,-0.88,0.42394750620445154
-0.6799999999999999,-0.88,0.34428996642314735
-0.6599999999999999,-0.88,0.2592027682024936
-0.64,-0.88,0.17002778748705796
-0.62,-0.88,0.07817136699327439
-0.6,-0.88,-0.014917862655304596
-0.5800000000000001,-0.88,-0.10777182869831019
-0.56,-0.88,-0.19892616862297371
-0.54,-0.88,-0.28694332403572026
-0.52,-0.88,-0.3704352118167903
-0.5,-0.88,-0.44808511502024023
-0.48,-0.88,-0.518668448286748
-0.45999999999999996,-0.88,-0.5810720702862607
-0.43999999999999995,-0.88,-0.6343118386217294
-0.42000000000000004,-0.88,-0.677548130342608
-0.4,-0.88,-0.7100990833003492
-0.38,-0.88,-0.731451349521813
-0.36,-0.88,-0.741268191013461
-0.33999999999999997,-0.88,-0.7393947903206728
-0.31999999999999995,-0.88,-0.7258606920914901
-0.29999999999999993,-0.88,-0.7008793371398649
-0.28,-0.88,-0.6648446963565227
-0.26,-0.88,-0.6183250575526676
-0.24,-0.88,-0.5620540632217217
-0.21999999999999997,-0.88,-0.49691914055894676
-0.19999999999999996,-0.88,-0.42394750620445165
-0.17999999999999994,-0.88,-0.34428996642314746
-0.16000000000000003,-0.88,-0.25920276820249377
-0.14,-0.88,-0.17002778748705807
-0.12,-0.88,-0.0781713669932743
-0.09999999999999998,-0.88,0.014917862655304582
-0.07999999999999996,-0.88,0.1077718286983103
-0.05999999999999994,-0.88,0.19892616862297388
-0.040000000000000036,-0.88,0.2869433240357204
-0.020000000000000018,-0.88,0.37043521181679046
0.0,-0.88,0.44808511502024023
0.020000000000000018,-0.88,0.5186684482867482
0.040000000000000036,-0.88,0.5810720702862608
0.06000000000000005,-0.88,0.6343118386217297
0.08000000000000007,-0.88,0.6775481303426081
0.10000000000000009,-0.88,0.7100990833003495
0.1200000000000001,-0.88,0.7314513495218131
0.14000000000000012,-0.88,0.7412681910134612
0.15999999999999992,-0.88,0.7393947903206726
0.17999999999999994,-0.88,0.72586069209149
0.19999999999999996,-0.88,0.700879337139865
0.21999999999999997,-0.88,0.6648446963565227
0.24,-0.88,0.6183250575526675
0.26,-0.88,0.5620540632217218
0.28,-0.88,0.4969191405589467
0.30000000000000004,-0.88,0.4239475062044515
0.32000000000000006,-0.88,0.3442899664231476
0.3400000000000001,-0.88,0.2592027682024937
0.3600000000000001,-0.88,0.17002778748705805
0.3800000000000001,-0.88,0.07817136699327429
0.40000000000000013,-0.88,-0.014917862655304644
0.41999999999999993,-0.88,-0.10777182869831026
0.43999999999999995,-0.88,-0.19892616862297383
0.45999999999999996,-0.88,-0.2869433240357203
0.48,-0.88,-0.37043521181679034
0.5,-0.88,-0.44808511502024023
0.52,-0.88,-0.5186684482867479
0.54,-0.88,-0.5810720702862606
0.56,-0.88,-0.6343118386217297
0.5800000000000001,-0.88,-0.6775481303426081
0.6000000000000001,-0.88,-0.7100990833003495
0.6200000000000001,-0.88,-0.7314513495218127
0.6400000000000001,-0.88,-0.7412681910134611
0.6600000000000001,-0.88,-0.7393947903206727
0.6799999999999999,-0.88,-0.7258606920914902
0.7,-0.88,-0.700879337139865
0.72,-0.88,-0.6648446963565228
0.74,-0.88,-0.6183250575526673
0.76,-0.88,-0.5620540632217217
0.78,-0.88,-0.4969191405589467
0.8,-0.88,-0.42394750620445143
0.8200000000000001,-0.88,-0.3442899664231474
0.8400000000000001,-0.88,-0.2592027682024936
0.8600000000000001,-0.88,-0.1700277874870579
0.8800000000000001,-0.88,-0.07817136699327419
0.9000000000000001,-0.88,0.014917862655304693
0.9199999999999999,-0.88,0.10777182869831023
0.94,-0.88,0.19892616862297383
0.96,-0.88,0.28694332403572037
0.98,-0.88,0.37043521181679034
1.0,-0.88,0.44808511502024034

-1.0,-0.86,0.4762575609085993
-0.98,-0.86,0.5446560312414478
-0.96,-0.86,0.6044649505998763
-0.94,-0.86,0.6547410965974858
-0.92,-0.86,0.6946915843783804
-0.9,-0.86,0.7236863708849907
-0.88,-0.86,0.741268191013461
-0.86,-0.86,0.747159768957495
-0.84,-0.86,0.7412681910134584
-0.8200000000000001,-0.86,0.7236863708849863
-0.8,-0.86,0.694691584378375
-0.78,-0.86,0.6547410965974798
-0.76,-0.86,0.6044649505998697
-0.74,-0.86,0.5446560312414408
-0.72,-0.86,0.47625756090859284
-0.7,-0.86,0.40034822433773937
-0.6799999999999999,-0.86,0.3181251571126433
-0.6599999999999999,-0.86,0.23088506612112328
-0.64,-0.86,0.14000377971282002
-0.62,-0.86,0.04691455006424111
-0.6,-0.86,-0.04691455006424461
-0.5800000000000001,-0.86,-0.14000377971282357
-0.56,-0.86,-0.23088506612112755
-0.54,-0.86,-0.31812515711264827
-0.52,-0.86,-0.40034822433774525
-0.5,-0.86,-0.4762575609085992
-0.48,-0.86,-0.5446560312414478
-0.45999999999999996,-0.86,-0.6044649505998763
-0.43999999999999995,-0.86,-0.6547410965974858
-0.42000000000000004,-0.86,-0.6946915843783803
-0.4,-0.86,-0.7236863708849904
-0.38,-0.86,-0.741268191013461
-0.36,-0.86,-0.7471597689574951
-0.33999999999999997,-0.86,-0.7412681910134584
-0.31999999999999995,-0.86,-0.7236863708849864
-0.29999999999999993,-0.86,-0.6946915843783751
-0.28,-0.86,-0.6547410965974799
-0.26,-0.86,-0.6044649505998696
-0.24,-0.86,-0.5446560312414408
-0.21999999999999997,-0.86,-0.4762575609085929
-0.19999999999999996,-0.86,-0.40034822433773964
-0.17999999999999994,-0.86,-0.3181251571126435
-0.16000000000000003,-0.86,-0.23088506612112344
-0.14,-0.86,-0.14000377971281996
-0.12,-0.86,-0.04691455006424111
-0.09999999999999998,-0.86,0.046914550064244706
-0.07999999999999996,-0.86,0.1400037797128237
-0.05999999999999994,-0.86,0.23088506612112766
-0.040000000000000036,-0.86,0.31812515711264844
-0.020000000000000018,-0.86,0.4003482243377453
0.0,-0.86,0.4762575609085994
0.020000000000000018,-0.86,0.5446560312414479
0.040000000000000036,-0.86,0.6044649505998766
0.06000000000000005,-0.86,0.6547410965974859
0.08000000000000007,-0.86,0.6946915843783804
0.10000000000000009,-0.86,0.7236863708849905
0.1200000000000001,-0.86,0.7412681910134612
0.14000000000000012,-0.86,0.7471597689574948
0.15999999999999992,-0.86,0.7412681910134583
0.17999999999999994,-0.86,0.7236863708849866
0.19999999999999996,-0.86,0.6946915843783751
0.21999999999999997,-0.86,0.6547410965974798
0.24,-0.86,0.6044649505998697
0.26,-0.86,0.5446560312414408
0.28,-0.86,0.47625756090859284
0.30000000000000004,-0.86,0.4003482243377396
0.32000000000000006,-0.86,0.31812515711264344
0.3400000000000001,-0.86,0.23088506612112342
0.3600000000000001,-0.86,0.1400037797128199
0.3800000000000001,-0.86,0.04691455006424104
0.40000000000000013,-0.86,-0.04691455006424469