TITLE = "Solution" 
VARIABLES = "x", "y", "sol" 
ZONE STRANDID=1, SOLUTIONTIME= 0.5000000000000002, I= 101, J =101, DATAPACKING=POINT 
-1.0,-1.0,-0.1634386348020972
-0.98,-1.0,-0.1621498723499286
-0.96,-1.0,-0.15830390954716306
-0.94,-1.0,-0.15196139952466703
-0.92,-1.0,-0.14322236745432704
-0.9,-1.0,-0.13222463309233703
-0.88,-1.0,-0.11914163727931373
-0.86,-1.0,-0.10417970667463125
-0.84,-1.0,-0.08757479986174968
-0.8200000000000001,-1.0,-0.06958878614039876
-0.8,-1.0,-0.05050531569128783
-0.78,-1.0,-0.030625346243312125
-0.76,-1.0,-0.010262396790384376
-0.74,-1.0,0.010262396790386347
-0.72,-1.0,0.03062534624331413
-0.7,-1.0,0.05050531569128973
-0.6799999999999999,-1.0,0.06958878614040037
-0.6599999999999999,-1.0,0.0875747998617511
-0.64,-1.0,0.1041797066746323
-0.62,-1.0,0.11914163727931441
-0.6,-1.0,0.13222463309233756
-0.5800000000000001,-1.0,0.1432223674543274
-0.56,-1.0,0.1519613995246673
-0.54,-1.0,0.15830390954716334
-0.52,-1.0,0.16214987234992886
-0.5,-1.0,0.16343863480209717
-0.48,-1.0,0.16214987234992861
-0.45999999999999996,-1.0,0.1583039095471631
-0.43999999999999995,-1.0,0.15196139952466703
-0.42000000000000004,-1.0,0.14322236745432707
-0.4,-1.0,0.13222463309233703
-0.38,-1.0,0.11914163727931366
-0.36,-1.0,0.10417970667463125
-0.33999999999999997,-1.0,0.08757479986174968
-0.31999999999999995,-1.0,0.06958878614039865
-0.29999999999999993,-1.0,0.05050531569128782
-0.28,-1.0,0.030625346243312132
-0.26,-1.0,0.01026239679038439
-0.24,-1.0,-0.010262396790386388
-0.21999999999999997,-1.0,-0.030625346243314124
-0.19999999999999996,-1.0,-0.050505315691289694
-0.17999999999999994,-1.0,-0.0695887861404004
-0.16000000000000003,-1.0,-0.0875747998617511
-0.14,-1.0,-0.10417970667463228
-0.12,-1.0,-0.11914163727931446
-0.09999999999999998,-1.0,-0.13222463309233753
-0.07999999999999996,-1.0,-0.14322236745432748
-0.05999999999999994,-1.0,-0.1519613995246674
-0.040000000000000036,-1.0,-0.15830390954716336
-0.020000000000000018,-1.0,-0.16214987234992878
0.0,-1.0,-0.16343863480209717
0.020000000000000018,-1.0,-0.16214987234992856
0.040000000000000036,-1.0,-0.15830390954716306
0.06000000000000005,-1.0,-0.15196139952466697
0.08000000000000007,-1.0,-0.14322236745432698
0.10000000000000009,-1.0,-0.13222463309233703
0.1200000000000001,-1.0,-0.11914163727931375
0.14000000000000012,-1.0,-0.10417970667463125
0.15999999999999992,-1.0,-0.0875747998617497
0.17999999999999994,-1.0,-0.06958878614039872
0.19999999999999996,-1.0,-0.05050531569128785
0.21999999999999997,-1.0,-0.030625346243312083
0.24,-1.0,-0.01026239679038446
0.26,-1.0,0.010262396790386374
0.28,-1.0,0.030625346243314082
0.30000000000000004,-1.0,0.05050531569128967
0.32000000000000006,-1.0,0.0695887861404004
0.3400000000000001,-1.0,0.08757479986175107
0.3600000000000001,-1.0,0.1041797066746323
0.3800000000000001,-1.0,0.11914163727931446
0.40000000000000013,-1.0,0.13222463309233762
0.41999999999999993,-1.0,0.14322236745432745
0.43999999999999995,-1.0,0.15196139952466733
0.45999999999999996,-1.0,0.15830390954716334
0.48,-1.0,0.16214987234992875
0.5,-1.0,0.16343863480209708
0.52,-1.0,0.16214987234992856
0.54,-1.0,0.15830390954716306
0.56,-1.0,0.151961399524667
0.5800000000000001,-1.0,0.14322236745432698
0.6000000000000001,-1.0,0.13222463309233703
0.6200000000000001,-1.0,0.11914163727931365
0.6400000000000001,-1.0,0.10417970667463122
0.6600000000000001,-1.0,0.08757479986174972
0.6799999999999999,-1.0,0.06958878614039868
0.7,-1.0,0.0505053156912878
0.72,-1.0,0.03062534624331218
0.74,-1.0,0.010262396790384438
0.76,-1.0,-0.010262396790386381
0.78,-1.0,-0.030625346243314144
0.8,-1.0,-0.05050531569128969
0.8200000000000001,-1.0,-0.0695887861404004
0.8400000000000001,-1.0,-0.08757479986175112
0.8600000000000001,-1.0,-0.1041797066746323
0.8800000000000001,-1.0,-0.11914163727931437
0.9000000000000001,-1.0,-0.13222463309233756
0.9199999999999999,-1.0,-0.14322236745432732
0.94,-1.0,-0.1519613995246673
0.96,-1.0,-0.15830390954716328
0.98,-1.0,-0.16214987234992875
1.0,-1.0,-0.1634386348020972

-1.0,-0.98,-0.1621498723499286
-0.98,-0.98,-0.1477302153664126
-0.96,-0.98,-0.1309807646368153
-0.94,-0.98,-0.1121656690047792
-0.92,-0.98,-0.09158165376801489
-0.9,-0.98,-0.06955334114310081
-0.88,-0.98,-0.046428130779207946
-0.86,-0.98,-0.022570721058105994
-0.84,-0.98,0.0016426424171774798
-0.8200000000000001,-0.98,0.02583010044027509
-0.8,-0.98,0.0496102023492755
-0.78,-0.98,0.07260792173152937
-0.76,-0.98,0.09446057081420692
-0.74,-0.98,0.11482352026713474
-0.72,-0.98,0.1333756342132036
-0.7,-0.98,0.14982433473298815
-0.6799999999999999,-0.98,0.1639102159933142
-0.6599999999999999,-0.98,0.17541113523220866
-0.64,-0.98,0.18414571608295816
-0.62,-0.98,0.18997620898776083
-0.6,-0.98,0.19281066359054022
-0.5800000000000001,-0.98,0.19260437884898937
-0.56,-0.98,0.18936060799671112
-0.54,-0.98,0.18313050723778054
-0.52,-0.98,0.17401232898284763
-0.5,-0.98,0.1621498723499286
-0.48,-0.98,0.14773021536641268
-0.45999999999999996,-0.98,0.1309807646368153
-0.43999999999999995,-0.98,0.11216566900477923
-0.42000000000000004,-0.98,0.09158165376801485
-0.4,-0.98,0.06955334114310074
-0.38,-0.98,0.04642813077920792
-0.36,-0.98,0.02257072105810597
-0.33999999999999997,-0.98,-0.0016426424171775492
-0.31999999999999995,-0.98,-0.02583010044027513
-0.29999999999999993,-0.98,-0.049610202349275496
-0.28,-0.98,-0.07260792173152933
-0.26,-0.98,-0.09446057081420695
-0.24,-0.98,-0.11482352026713476
-0.21999999999999997,-0.98,-0.13337563421320353
-0.19999999999999996,-0.98,-0.14982433473298817
-0.17999999999999994,-0.98,-0.1639102159933142
-0.16000000000000003,-0.98,-0.17541113523220864
-0.14,-0.98,-0.18414571608295818
-0.12,-0.98,-0.1899762089877608
-0.09999999999999998,-0.98,-0.19281066359054033
-0.07999999999999996,-0.98,-0.19260437884898945
-0.05999999999999994,-0.98,-0.18936060799671114
-0.040000000000000036,-0.98,-0.1831305072377805
-0.020000000000000018,-0.98,-0.17401232898284766
0.0,-0.98,-0.16214987234992856
0.020000000000000018,-0.98,-0.14773021536641257
0.040000000000000036,-0.98,-0.13098076463681524
0.06000000000000005,-0.98,-0.11216566900477914
0.08000000000000007,-0.98,-0.09158165376801485
0.10000000000000009,-0.98,-0.0695533411431008
0.1200000000000001,-0.98,-0.046428130779207946
0.14000000000000012,-0.98,-0.022570721058105987
0.15999999999999992,-0.98,0.0016426424171774867
0.17999999999999994,-0.98,0.025830100440275054
0.19999999999999996,-0.98,0.04961020234927553
0.21999999999999997,-0.98,0.07260792173152926
0.24,-0.98,0.09446057081420693
0.26,-0.98,0.11482352026713469
0.28,-0.98,0.13337563421320353
0.30000000000000004,-0.98,0.1498243347329882
0.32000000000000006,-0.98,0.16391021599331412
0.3400000000000001,-0.98,0.17541113523220866
0.3600000000000001,-0.98,0.18414571608295816
0.3800000000000001,-0.98,0.18997620898776083
0.40000000000000013,-0.98,0.19281066359054022
0.41999999999999993,-0.98,0.19260437884898937
0.43999999999999995,-0.98,0.18936060799671112
0.45999999999999996,-0.98,0.18313050723778046
0.48,-0.98,0.17401232898284757
0.5,-0.98,0.16214987234992856
0.52,-0.98,0.14773021536641257
0.54,-0.98,0.13098076463681527
0.56,-0.98,0.11216566900477914
0.5800000000000001,-0.98,0.09158165376801485
0.6000000000000001,-0.98,0.06955334114310074
0.6200000000000001,-0.98,0.0464281307792079
0.6400000000000001,-0.98,0.022570721058106005
0.6600000000000001,-0.98,-0.0016426424171775075
0.6799999999999999,-0.98,-0.025830100440275137
0.7,-0.98,-0.049610202349275434
0.72,-0.98,-0.07260792173152929
0.74,-0.98,-0.09446057081420692
0.76,-0.98,-0.11482352026713473
0.78,-0.98,-0.13337563421320356
0.8,-0.98,-0.14982433473298817
0.8200000000000001,-0.98,-0.16391021599331423
0.8400000000000001,-0.98,-0.17541113523220866
0.8600000000000001,-0.98,-0.1841457160829581
0.8800000000000001,-0.98,-0.18997620898776088
0.9000000000000001,-0.98,-0.19281066359054014
0.9199999999999999,-0.98,-0.19260437884898937
0.94,-0.98,-0.18936060799671106
0.96,-0.98,-0.18313050723778046
0.98,-0.98,-0.17401232898284766
1.0,-0.98,-0.1621498723499286

-1.0,-0.96,-0.15830390954716306
-0.98,-0.96,-0.13098076463681527
-0.96,-0.96,-0.10159197482402875
-0.94,-0.96,-0.07060101888016314
-0.92,-0.96,-0.03849664269355297
-0.9,-0.96,-0.005785151454885801
-0.88,-0.96,0.02701757507810689
-0.86,-0.96,0.05939421831260084
-0.84,-0.96,0.09083417924391884
-0.8200000000000001,-0.96,0.12084163090685188
-0.8,-0.96,0.14894333786309236
-0.78,-0.96,0.17469611940679464
-0.76,-0.96,0.19769383878904861
-0.74,-0.96,0.2175738082370243
-0.72,-0.96,0.23402250875680888
-0.7,-0.96,0.24678053451522813
-0.6799999999999999,-0.96,0.25564668382479644
-0.6599999999999999,-0.96,0.26048113221452107
-0.64,-0.96,0.26120763754533705
-0.62,-0.96,0.2578147423941839
-0.6,-0.96,0.25035595474441263
-0.5800000000000001,-0.96,0.23894890413292397
-0.56,-0.96,0.22377348656210266
-0.54,-0.96,0.20506902743239547
-0.52,-0.96,0.1831305072377804
-0.5,-0.96,0.1583039095471631
-0.48,-0.96,0.13098076463681532
-0.45999999999999996,-0.96,0.10159197482402876
-0.43999999999999995,-0.96,0.0706010188801631
-0.42000000000000004,-0.96,0.03849664269355292
-0.4,-0.96,0.005785151454885749
-0.38,-0.96,-0.027017575078106947
-0.36,-0.96,-0.05939421831260088
-0.33999999999999997,-0.96,-0.09083417924391894
-0.31999999999999995,-0.96,-0.1208416309068518
-0.29999999999999993,-0.96,-0.14894333786309233
-0.28,-0.96,-0.17469611940679464
-0.26,-0.96,-0.1976938387890486
-0.24,-0.96,-0.2175738082370242
-0.21999999999999997,-0.96,-0.23402250875680888
-0.19999999999999996,-0.96,-0.2467805345152282
-0.17999999999999994,-0.96,-0.25564668382479644
-0.16000000000000003,-0.96,-0.26048113221452107
-0.14,-0.96,-0.261207637545337
-0.12,-0.96,-0.25781474239418406
-0.09999999999999998,-0.96,-0.25035595474441275
-0.07999999999999996,-0.96,-0.23894890413292405
-0.05999999999999994,-0.96,-0.22377348656210264
-0.040000000000000036,-0.96,-0.20506902743239547
-0.020000000000000018,-0.96,-0.18313050723778038
0.0,-0.96,-0.15830390954716303
0.020000000000000018,-0.96,-0.13098076463681524
0.040000000000000036,-0.96,-0.10159197482402868
0.06000000000000005,-0.96,-0.0706010188801631
0.08000000000000007,-0.96,-0.038496642693552935
0.10000000000000009,-0.96,-0.005785151454885777
0.1200000000000001,-0.96,0.02701757507810692
0.14000000000000012,-0.96,0.05939421831260083
0.15999999999999992,-0.96,0.09083417924391884
0.17999999999999994,-0.96,0.12084163090685185
0.19999999999999996,-0.96,0.14894333786309227
0.21999999999999997,-0.96,0.17469611940679458
0.24,-0.96,0.1976938387890485
0.26,-0.96,0.21757380823702419
0.28,-0.96,0.2340225087568089
0.30000000000000004,-0.96,0.24678053451522802
0.32000000000000006,-0.96,0.25564668382479644
0.3400000000000001,-0.96,0.260481132214521
0.3600000000000001,-0.96,0.261207637545337
0.3800000000000001,-0.96,0.25781474239418395
0.40000000000000013,-0.96,0.2503559547444127
0.41999999999999993,-0.96,0.23894890413292397
0.43999999999999995,-0.96,0.22377348656210258
0.45999999999999996,-0.96,0.20506902743239544
0.48,-0.96,0.18313050723778032
0.5,-0.96,0.158303909547163
0.52,-0.96,0.13098076463681524
0.54,-0.96,0.10159197482402868
0.56,-0.96,0.0706010188801631
0.5800000000000001,-0.96,0.03849664269355291
0.6000000000000001,-0.96,0.005785151454885746
0.6200000000000001,-0.96,-0.027017575078106905
0.6400000000000001,-0.96,-0.059394218312600826
0.6600000000000001,-0.96,-0.09083417924391893
0.6799999999999999,-0.96,-0.12084163090685177
0.7,-0.96,-0.1489433378630923
0.72,-0.96,-0.1746961194067946
0.74,-0.96,-0.19769383878904853
0.76,-0.96,-0.21757380823702427
0.78,-0.96,-0.2340225087568089
0.8,-0.96,-0.24678053451522816
0.8200000000000001,-0.96,-0.25564668382479644
0.8400000000000001,-0.96,-0.26048113221452096
0.8600000000000001,-0.96,-0.26120763754533705
0.8800000000000001,-0.96,-0.25781474239418384
0.9000000000000001,-0.96,-0.25035595474441263
0.9199999999999999,-0.96,-0.23894890413292397
0.94,-0.96,-0.22377348656210252
0.96,-0.96,-0.2050690274323955
0.98,-0.96,-0.18313050723778038
1.0,-0.96,-0.15830390954716306

-1.0,-0.94,-0.151961399524667
-0.98,-0.94,-0.11216566900477919
-0.96,-0.94,-0.07060101888016312
-0.94,-0.94,-0.027922948512802505
-0.92,-0.94,0.015195483432965954
-0.9,-0.94,0.05807427352765473
-0.88,-0.94,0.10003719763692301
-0.86,-0.94,0.14042247538013178
-0.84,-0.94,0.1785932068022753
-0.8200000000000001,-0.94,0.21394741666673622
-0.8,-0.94,0.24592754796437105
-0.78,-0.94,0.2740292549206117
-0.76,-0.94,0.2978093568296122
-0.74,-0.94,0.31689282727872276
-0.72,-0.94,0.3309787085390489
-0.7,-0.94,0.3398448578486172
-0.6799999999999999,-0.94,0.34335145073643486
-0.6599999999999999,-0.94,0.3414431861379247
-0.64,-0.94,0.33415015852574687
-0.62,-0.94,0.32158738330198894
-0.6,-0.94,0.3039529829365677
-0.5800000000000001,-0.94,0.281525062457526
-0.56,-0.94,0.25465732356860843
-0.54,-0.94,0.22377348656210258
-0.52,-0.94,0.18936060799671098
-0.5,-0.94,0.15196139952466708
-0.48,-0.94,0.11216566900477921
-0.45999999999999996,-0.94,0.0706010188801631
-0.43999999999999995,-0.94,0.027922948512802456
-0.42000000000000004,-0.94,-0.015195483432965999
-0.4,-0.94,-0.05807427352765477
-0.38,-0.94,-0.10003719763692304
-0.36,-0.94,-0.1404224753801319
-0.33999999999999997,-0.94,-0.1785932068022752
-0.31999999999999995,-0.94,-0.21394741666673628
-0.29999999999999993,-0.94,-0.24592754796437105
-0.28,-0.94,-0.2740292549206117
-0.26,-0.94,-0.29780935682961207
-0.24,-0.94,-0.31689282727872287
-0.21999999999999997,-0.94,-0.3309787085390489
-0.19999999999999996,-0.94,-0.3398448578486172
-0.17999999999999994,-0.94,-0.34335145073643486
-0.16000000000000003,-0.94,-0.34144318613792457
-0.14,-0.94,-0.33415015852574703
-0.12,-0.94,-0.32158738330198905
-0.09999999999999998,-0.94,-0.3039529829365678
-0.07999999999999996,-0.94,-0.281525062457526
-0.05999999999999994,-0.94,-0.2546573235686084
-0.040000000000000036,-0.94,-0.22377348656210258
-0.020000000000000018,-0.94,-0.18936060799671092
0.0,-0.94,-0.15196139952466695
0.020000000000000018,-0.94,-0.11216566900477916
0.040000000000000036,-0.94,-0.07060101888016307
0.06000000000000005,-0.94,-0.02792294851280245
0.08000000000000007,-0.94,0.015195483432965978
0.10000000000000009,-0.94,0.05807427352765474
0.1200000000000001,-0.94,0.10003719763692301
0.14000000000000012,-0.94,0.14042247538013178
0.15999999999999992,-0.94,0.17859320680227525
0.17999999999999994,-0.94,0.21394741666673622
0.19999999999999996,-0.94,0.24592754796437094
0.21999999999999997,-0.94,0.2740292549206116
0.24,-0.94,0.297809356829612
0.26,-0.94,0.3168928272787228
0.28,-0.94,0.33097870853904876
0.30000000000000004,-0.94,0.3398448578486171
0.32000000000000006,-0.94,0.3433514507364348
0.3400000000000001,-0.94,0.3414431861379247
0.3600000000000001,-0.94,0.3341501585257468
0.3800000000000001,-0.94,0.32158738330198894
0.40000000000000013,-0.94,0.3039529829365677
0.41999999999999993,-0.94,0.28152506245752584
0.43999999999999995,-0.94,0.2546573235686084
0.45999999999999996,-0.94,0.2237734865621025
0.48,-0.94,0.18936060799671087
0.5,-0.94,0.15196139952466695
0.52,-0.94,0.11216566900477912
0.54,-0.94,0.07060101888016307
0.56,-0.94,0.027922948512802432
0.5800000000000001,-0.94,-0.01519548343296601
0.6000000000000001,-0.94,-0.05807427352765473
0.6200000000000001,-0.94,-0.10003719763692298
0.6400000000000001,-0.94,-0.14042247538013186
0.6600000000000001,-0.94,-0.1785932068022752
0.6799999999999999,-0.94,-0.21394741666673622
0.7,-0.94,-0.24592754796437105
0.72,-0.94,-0.27402925492061164
0.74,-0.94,-0.29780935682961207
0.76,-0.94,-0.31689282727872287
0.78,-0.94,-0.3309787085390489
0.8,-0.94,-0.33984485784861707
0.8200000000000001,-0.94,-0.34335145073643475
0.8400000000000001,-0.94,-0.34144318613792474
0.8600000000000001,-0.94,-0.3341501585257468
0.8800000000000001,-0.94,-0.3215873833019889
0.9000000000000001,-0.94,-0.30395298293656764
0.9199999999999999,-0.94,-0.28152506245752584
0.94,-0.94,-0.25465732356860843
0.96,-0.94,-0.22377348656210255
0.98,-0.94,-0.1893606079967109
1.0,-0.94,-0.151961399524667

-1.0,-0.92,-0.143222367454327
-0.98,-0.92,-0.09158165376801486
-0.96,-0.92,-0.03849664269355297
-0.94,-0.92,0.01519548343296594
-0.92,-0.92,0.06864796770840517
-0.9,-0.92,0.12101783252477474
-0.88,-0.92,0.17147917382967962
-0.86,-0.92,0.21923618612659757
-0.84,-0.92,0.26353571280294924
-0.8200000000000001,-0.92,0.30367912385979445
-0.8,-0.92,0.33903333372425565
-0.78,-0.92,0.36904078538718865
-0.76,-0.92,0.3932282434102859
-0.74,-0.92,0.41121425713163673
-0.72,-0.92,0.42271517637053124
-0.7,-0.92,0.4275496247602557
-0.6799999999999999,-0.92,0.4256413601617452
-0.6599999999999999,-0.92,0.4170204770476606
-0.64,-0.92,0.4018229318945766
-0.62,-0.92,0.3802883990681306
-0.6,-0.92,0.35275649101510226
-0.5800000000000001,-0.92,0.31966140237225216
-0.56,-0.92,0.2815250624575259
-0.54,-0.92,0.23894890413292397
-0.52,-0.92,0.19260437884898923
-0.5,-0.92,0.14322236745432707
-0.48,-0.92,0.09158165376801485
-0.45999999999999996,-0.92,0.03849664269355292
-0.43999999999999995,-0.92,-0.015195483432965999
-0.42000000000000004,-0.92,-0.06864796770840526
-0.4,-0.92,-0.1210178325247748
-0.38,-0.92,-0.17147917382967975
-0.36,-0.92,-0.2192361861265974
-0.33999999999999997,-0.92,-0.2635357128029493
-0.31999999999999995,-0.92,-0.3036791238597945
-0.29999999999999993,-0.92,-0.3390333337242556
-0.28,-0.92,-0.36904078538718854
-0.26,-0.92,-0.3932282434102861
-0.24,-0.92,-0.41121425713163684
-0.21999999999999997,-0.92,-0.4227151763705312
-0.19999999999999996,-0.92,-0.42754962476025565
-0.17999999999999994,-0.92,-0.42564136016174514
-0.16000000000000003,-0.92,-0.41702047704766076
-0.14,-0.92,-0.40182293189457663
-0.12,-0.92,-0.3802883990681307
-0.09999999999999998,-0.92,-0.3527564910151022
-0.07999999999999996,-0.92,-0.3196614023722521
-0.05999999999999994,-0.92,-0.28152506245752595
-0.040000000000000036,-0.92,-0.23894890413292394
-0.020000000000000018,-0.92,-0.19260437884898912
0.0,-0.92,-0.143222367454327
0.020000000000000018,-0.92,-0.0915816537680148
0.040000000000000036,-0.92,-0.038496642693552886
0.06000000000000005,-0.92,0.015195483432965999
0.08000000000000007,-0.92,0.0686479677084052
0.10000000000000009,-0.92,0.12101783252477477
0.1200000000000001,-0.92,0.17147917382967962
0.14000000000000012,-0.92,0.21923618612659745
0.15999999999999992,-0.92,0.26353571280294924
0.17999999999999994,-0.92,0.30367912385979445
0.19999999999999996,-0.92,0.3390333337242555
0.21999999999999997,-0.92,0.3690407853871885
0.24,-0.92,0.393228243410286
0.26,-0.92,0.4112142571316367
0.28,-0.92,0.42271517637053113
0.30000000000000004,-0.92,0.42754962476025554
0.32000000000000006,-0.92,0.42564136016174525
0.3400000000000001,-0.92,0.4170204770476605
0.3600000000000001,-0.92,0.4018229318945766
0.3800000000000001,-0.92,0.3802883990681306
0.40000000000000013,-0.92,0.35275649101510204
0.41999999999999993,-0.92,0.3196614023722521
0.43999999999999995,-0.92,0.2815250624575259
0.45999999999999996,-0.92,0.23894890413292388
0.48,-0.92,0.1926043788489891
0.5,-0.92,0.14322236745432695
0.52,-0.92,0.09158165376801479
0.54,-0.92,0.03849664269355288
0.56,-0.92,-0.01519548343296602
0.5800000000000001,-0.92,-0.0686479677084052
0.6000000000000001,-0.92,-0.12101783252477472
0.6200000000000001,-0.92,-0.17147917382967967
0.6400000000000001,-0.92,-0.2192361861265974
0.6600000000000001,-0.92,-0.26353571280294924
0.6799999999999999,-0.92,-0.30367912385979456
0.7,-0.92,-0.3390333337242555
0.72,-0.92,-0.3690407853871885
0.74,-0.92,-0.393228243410286
0.76,-0.92,-0.4112142571316368
0.78,-0.92,-0.4227151763705311
0.8,-0.92,-0.42754962476025554
0.8200000000000001,-0.92,-0.42564136016174525
0.8400000000000001,-0.92,-0.41702047704766054
0.8600000000000001,-0.92,-0.4018229318945765
0.8800000000000001,-0.92,-0.38028839906813056
0.9000000000000001,-0.92,-0.35275649101510204
0.9199999999999999,-0.92,-0.31966140237225216
0.94,-0.92,-0.2815250624575259
0.96,-0.92,-0.23894890413292386
0.98,-0.92,-0.19260437884898918
1.0,-0.92,-0.143222367454327

-1.0,-0.9,-0.132224633092337
-0.98,-0.9,-0.0695533411431008
-0.96,-0.9,-0.005785151454885822
-0.94,-0.9,0.0580742735276547
-0.92,-0.9,0.12101783252477472
-0.9,-0.9,0.18205286801043008
-0.88,-0.9,0.2402168210144493
-0.86,-0.9,0.2945924112524971
-0.84,-0.9,0.34432210318411666
-0.8200000000000001,-0.9,0.38862162986046866
-0.8,-0.9,0.42679236128261216
-0.78,-0.9,0.4582323222139299
-0.76,-0.9,0.48244568568921326
-0.74,-0.9,0.49905059250209466
-0.72,-0.9,0.5077851733528438
-0.7,-0.9,0.5085116786836591
-0.6799999999999999,-0.9,0.5012186510714811
-0.6599999999999999,-0.9,0.4860211059183971
-0.64,-0.9,0.4631587175900443
-0.62,-0.9,0.4329920396076898
-0.6,-0.9,0.3959968185038151
-0.5800000000000001,-0.9,0.35275649101510215
-0.56,-0.9,0.3039529829365677
-0.54,-0.9,0.25035595474441263
-0.52,-0.9,0.19281066359054
-0.5,-0.9,0.132224633092337
-0.48,-0.9,0.06955334114310079
-0.45999999999999996,-0.9,0.005785151454885753
-0.43999999999999995,-0.9,-0.0580742735276548
-0.42000000000000004,-0.9,-0.1210178325247748
-0.4,-0.9,-0.1820528680104302
-0.38,-0.9,-0.2402168210144492
-0.36,-0.9,-0.2945924112524972
-0.33999999999999997,-0.9,-0.34432210318411666
-0.31999999999999995,-0.9,-0.38862162986046866
-0.29999999999999993,-0.9,-0.42679236128261216
-0.28,-0.9,-0.4582323222139301
-0.26,-0.9,-0.48244568568921337
-0.24,-0.9,-0.4990505925020946
-0.21999999999999997,-0.9,-0.5077851733528438
-0.19999999999999996,-0.9,-0.5085116786836591
-0.17999999999999994,-0.9,-0.5012186510714813
-0.16000000000000003,-0.9,-0.4860211059183971
-0.14,-0.9,-0.4631587175900445
-0.12,-0.9,-0.43299203960768984
-0.09999999999999998,-0.9,-0.395996818503815
-0.07999999999999996,-0.9,-0.35275649101510226
-0.05999999999999994,-0.9,-0.30395298293656775
-0.040000000000000036,-0.9,-0.25035595474441247
-0.020000000000000018,-0.9,-0.19281066359053997
0.0,-0.9,-0.13222463309233698
0.020000000000000018,-0.9,-0.0695533411431007
0.040000000000000036,-0.9,-0.005785151454885725
0.06000000000000005,-0.9,0.05807427352765477
0.08000000000000007,-0.9,0.12101783252477477
0.10000000000000009,-0.9,0.18205286801043005
0.1200000000000001,-0.9,0.24021682101444922
0.14000000000000012,-0.9,0.29459241125249713
0.15999999999999992,-0.9,0.3443221031841166
0.17999999999999994,-0.9,0.3886216298604685
0.19999999999999996,-0.9,0.42679236128261205
0.21999999999999997,-0.9,0.45823232221392995
0.24,-0.9,0.4824456856892133
0.26,-0.9,0.4990505925020945
0.28,-0.9,0.5077851733528436
0.30000000000000004,-0.9,0.5085116786836591
0.32000000000000006,-0.9,0.501218651071481
0.3400000000000001,-0.9,0.48602110591839703
0.3600000000000001,-0.9,0.4631587175900443
0.3800000000000001,-0.9,0.43299203960768956
0.40000000000000013,-0.9,0.39599681850381496
0.41999999999999993,-0.9,0.35275649101510215
0.43999999999999995,-0.9,0.3039529829365677
0.45999999999999996,-0.9,0.25035595474441247
0.48,-0.9,0.1928106635905399
0.5,-0.9,0.1322246330923369
0.52,-0.9,0.06955334114310069
0.54,-0.9,0.005785151454885704
0.56,-0.9,-0.05807427352765474
0.5800000000000001,-0.9,-0.12101783252477472
0.6000000000000001,-0.9,-0.18205286801043014
0.6200000000000001,-0.9,-0.2402168210144492
0.6400000000000001,-0.9,-0.2945924112524971
0.6600000000000001,-0.9,-0.34432210318411677
0.6799999999999999,-0.9,-0.3886216298604685
0.7,-0.9,-0.42679236128261194
0.72,-0.9,-0.45823232221393
0.74,-0.9,-0.4824456856892134
0.76,-0.9,-0.49905059250209444
0.78,-0.9,-0.5077851733528436
0.8,-0.9,-0.5085116786836591
0.8200000000000001,-0.9,-0.501218651071481
0.8400000000000001,-0.9,-0.48602110591839703
0.8600000000000001,-0.9,-0.4631587175900443
0.8800000000000001,-0.9,-0.4329920396076896
0.9000000000000001,-0.9,-0.395996818503815
0.9199999999999999,-0.9,-0.3527564910151021
0.94,-0.9,-0.30395298293656764
0.96,-0.9,-0.2503559547444126
0.98,-0.9,-0.19281066359053997
1.0,-0.9,-0.132224633092337

-1.0,-0.88,-0.11914163727931372
-0.98,-0.88,-0.046428130779207974
-0.96,-0.88,0.02701757507810688
-0.94,-0.88,0.10003719763692297
-0.92,-0.88,0.17147917382967962
-0.9,-0.88,0.24021682101444924
-0.88,-0.88,0.3051661054332475
-0.86,-0.88,0.36530273807196845
-0.84,-0.88,0.4196783283100165
-0.8200000000000001,-0.88,0.4674353406069346
-0.8,-0.88,0.5078206183501431
-0.78,-0.88,0.540197261584637
-0.76,-0.88,0.5640546713057388
-0.74,-0.88,0.5790166019104205
-0.72,-0.88,0.5848470948152226
-0.7,-0.88,0.5814541996640691
-0.6799999999999999,-0.88,0.5688914244403108
-0.6599999999999999,-0.88,0.5473568916138648
-0.64,-0.88,0.5171902136315102
-0.62,-0.88,0.4788671370257286
-0.6,-0.88,0.4329920396076897
-0.5800000000000001,-0.88,0.3802883990681306
-0.56,-0.88,0.32158738330198894
-0.54,-0.88,0.25781474239418384
-0.52,-0.88,0.18997620898776038
-0.5,-0.88,0.11914163727931372
-0.48,-0.88,0.04642813077920792
-0.45999999999999996,-0.88,-0.02701757507810697
-0.43999999999999995,-0.88,-0.10003719763692305
-0.42000000000000004,-0.88,-0.1714791738296797
-0.4,-0.88,-0.24021682101444922
-0.38,-0.88,-0.3051661054332477
-0.36,-0.88,-0.36530273807196845
-0.33999999999999997,-0.88,-0.4196783283100165
-0.31999999999999995,-0.88,-0.46743534060693454
-0.29999999999999993,-0.88,-0.5078206183501434
-0.28,-0.88,-0.540197261584637
-0.26,-0.88,-0.5640546713057388
-0.24,-0.88,-0.5790166019104205
-0.21999999999999997,-0.88,-0.5848470948152226
-0.19999999999999996,-0.88,-0.5814541996640691
-0.17999999999999994,-0.88,-0.5688914244403109
-0.16000000000000003,-0.88,-0.547356891613865
-0.14,-0.88,-0.5171902136315104
-0.12,-0.88,-0.4788671370257286
-0.09999999999999998,-0.88,-0.4329920396076898
-0.07999999999999996,-0.88,-0.38028839906813067
-0.05999999999999994,-0.88,-0.32158738330198877
-0.040000000000000036,-0.88,-0.25781474239418384
-0.020000000000000018,-0.88,-0.18997620898776033
0.0,-0.88,-0.11914163727931358
0.020000000000000018,-0.88,-0.046428130779207856
0.040000000000000036,-0.88,0.027017575078106957
0.06000000000000005,-0.88,0.10003719763692301
0.08000000000000007,-0.88,0.17147917382967962
0.10000000000000009,-0.88,0.2402168210144492
0.1200000000000001,-0.88,0.3051661054332476
0.14000000000000012,-0.88,0.3653027380719684
0.15999999999999992,-0.88,0.4196783283100164
0.17999999999999994,-0.88,0.46743534060693426
0.19999999999999996,-0.88,0.5078206183501431
0.21999999999999997,-0.88,0.540197261584637
0.24,-0.88,0.5640546713057386
0.26,-0.88,0.5790166019104203
0.28,-0.88,0.5848470948152226
0.30000000000000004,-0.88,0.5814541996640689
0.32000000000000006,-0.88,0.5688914244403109
0.3400000000000001,-0.88,0.5473568916138648
0.3600000000000001,-0.88,0.51719021363151
0.3800000000000001,-0.88,0.47886713702572853
0.40000000000000013,-0.88,0.4329920396076898
0.41999999999999993,-0.88,0.3802883990681306
0.43999999999999995,-0.88,0.3215873833019887
0.45999999999999996,-0.88,0.2578147423941837
0.48,-0.88,0.18997620898776024
0.5,-0.88,0.11914163727931357
0.52,-0.88,0.046428130779207814
0.54,-0.88,-0.02701757507810695
0.56,-0.88,-0.100037197636923
0.5800000000000001,-0.88,-0.17147917382967967
0.6000000000000001,-0.88,-0.24021682101444922
0.6200000000000001,-0.88,-0.30516610543324757
0.6400000000000001,-0.88,-0.3653027380719685
0.6600000000000001,-0.88,-0.4196783283100164
0.6799999999999999,-0.88,-0.46743534060693426
0.7,-0.88,-0.5078206183501432
0.72,-0.88,-0.5401972615846371
0.74,-0.88,-0.5640546713057385
0.76,-0.88,-0.5790166019104203
0.78,-0.88,-0.5848470948152226
0.8,-0.88,-0.5814541996640689
0.8200000000000001,-0.88,-0.5688914244403109
0.8400000000000001,-0.88,-0.5473568916138648
0.8600000000000001,-0.88,-0.5171902136315102
0.8800000000000001,-0.88,-0.4788671370257286
0.9000000000000001,-0.88,-0.43299203960768967
0.9199999999999999,-0.88,-0.3802883990681305
0.94,-0.88,-0.3215873833019888
0.96,-0.88,-0.2578147423941838
0.98,-0.88,-0.18997620898776033
1.0,-0.88,-0.11914163727931372

-1.0,-0.86,-0.1041797066746313
-0.98,-0.86,-0.022570721058106036
-0.96,-0.86,0.059394218312600805
-0.94,-0.86,0.14042247538013175
-0.92,-0.86,0.21923618612659743
-0.9,-0.86,0.2945924112524971
-0.88,-0.86,0.36530273807196845
-0.86,-0.86,0.430252022490767
-0.84,-0.86,0.48841597549478627
-0.8200000000000001,-0.86,0.5388773167996912
-0.8,-0.86,0.5808402409089594
-0.78,-0.86,0.613642967441952
-0.76,-0.86,0.6367681778058443
-0.74,-0.86,0.6498511736188669
-0.72,-0.86,0.6526856282216457
-0.7,-0.86,0.6452268405718738
-0.6799999999999999,-0.86,0.6275924402064526
-0.6599999999999999,-0.86,0.6000605321534239
-0.64,-0.86,0.563065311049549
-0.62,-0.86,0.5171902136315102
-0.6,-0.86,0.4631587175900442
-0.5800000000000001,-0.86,0.40182293189457646
-0.56,-0.86,0.33415015852574687
-0.54,-0.86,0.26120763754533666
-0.52,-0.86,0.18414571608295746
-0.5,-0.86,0.10417970667463125
-0.48,-0.86,0.022570721058105946
-0.45999999999999996,-0.86,-0.05939421831260089
-0.43999999999999995,-0.86,-0.14042247538013186
-0.42000000000000004,-0.86,-0.21923618612659745
-0.4,-0.86,-0.29459241125249713
-0.38,-0.86,-0.3653027380719685
-0.36,-0.86,-0.430252022490767
-0.33999999999999997,-0.86,-0.4884159754947863
-0.31999999999999995,-0.86,-0.5388773167996913
-0.29999999999999993,-0.86,-0.5808402409089595
-0.28,-0.86,-0.613642967441952
-0.26,-0.86,-0.6367681778058443
-0.24,-0.86,-0.6498511736188669
-0.21999999999999997,-0.86,-0.6526856282216457
-0.19999999999999996,-0.86,-0.6452268405718741
-0.17999999999999994,-0.86,-0.6275924402064528
-0.16000000000000003,-0.86,-0.6000605321534241
-0.14,-0.86,-0.563065311049549
-0.12,-0.86,-0.5171902136315102
-0.09999999999999998,-0.86,-0.46315871759004434
-0.07999999999999996,-0.86,-0.40182293189457635
-0.05999999999999994,-0.86,-0.33415015852574675
-0.040000000000000036,-0.86,-0.2612076375453366
-0.020000000000000018,-0.86,-0.1841457160829573
0.0,-0.86,-0.10417970667463117
0.020000000000000018,-0.86,-0.022570721058105953
0.040000000000000036,-0.86,0.059394218312600874
0.06000000000000005,-0.86,0.1404224753801318
0.08000000000000007,-0.86,0.2192361861265974
0.10000000000000009,-0.86,0.29459241125249713
0.1200000000000001,-0.86,0.3653027380719684
0.14000000000000012,-0.86,0.4302520224907669
0.15999999999999992,-0.86,0.4884159754947861
0.17999999999999994,-0.86,0.5388773167996912
0.19999999999999996,-0.86,0.5808402409089594
0.21999999999999997,-0.86,0.6136429674419518
0.24,-0.86,0.636768177805844
0.26,-0.86,0.6498511736188668
0.28,-0.86,0.6526856282216457