TITLE = "Solution" 
VARIABLES = "x", "y", "sol" 
ZONE STRANDID=1, SOLUTIONTIME= 0.9100000000000006, I= 101, J =101, DATAPACKING=POINT 
-1.0,-1.0,0.030387633856549492
-0.98,-1.0,0.0868504684382568
-0.96,-1.0,0.14194361925073773
-0.94,-1.0,0.19479823439462676
-0.92,-1.0,0.24458076501528764
-0.9,-1.0,0.2905061108661903
-0.88,-1.0,0.3318500018087946
-0.86,-1.0,0.3679604199852921
-0.84,-1.0,0.39826788252972123
-0.8200000000000001,-1.0,0.4222944226529553
-0.8,-1.0,0.4396611274644917
-0.78,-1.0,0.450094113655086
-0.76,-1.0,0.45342884680014856
-0.74,-1.0,0.44961273616590963
-0.72,-1.0,0.438705964096705
-0.7,-1.0,0.4208805369034555
-0.6799999999999999,-1.0,0.3964175722213925
-0.6599999999999999,-1.0,0.36570286561701915
-0.64,-1.0,0.32922080636156237
-0.62,-1.0,0.2875467383228068
-0.6,-1.0,0.24133788644860538
-0.5800000000000001,-1.0,0.19132299193684427
-0.56,-1.0,0.13829081955142344
-0.54,-1.0,0.0830777183307454
-0.52,-1.0,0.026554431863768206
-0.5,-1.0,-0.030387633856549384
-0.48,-1.0,-0.08685046843825667
-0.45999999999999996,-1.0,-0.14194361925073773
-0.43999999999999995,-1.0,-0.19479823439462662
-0.42000000000000004,-1.0,-0.24458076501528775
-0.4,-1.0,-0.29050611086619044
-0.38,-1.0,-0.3318500018087948
-0.36,-1.0,-0.3679604199852923
-0.33999999999999997,-1.0,-0.3982678825297212
-0.31999999999999995,-1.0,-0.4222944226529553
-0.29999999999999993,-1.0,-0.43966112746449193
-0.28,-1.0,-0.450094113655086
-0.26,-1.0,-0.45342884680014867
-0.24,-1.0,-0.44961273616590974
-0.21999999999999997,-1.0,-0.4387059640967052
-0.19999999999999996,-1.0,-0.42088053690345556
-0.17999999999999994,-1.0,-0.39641757222139257
-0.16000000000000003,-1.0,-0.36570286561701915
-0.14,-1.0,-0.32922080636156237
-0.12,-1.0,-0.28754673832280686
-0.09999999999999998,-1.0,-0.24133788644860543
-0.07999999999999996,-1.0,-0.19132299193684424
-0.05999999999999994,-1.0,-0.1382908195514234
-0.040000000000000036,-1.0,-0.0830777183307454
-0.020000000000000018,-1.0,-0.026554431863768102
0.0,-1.0,0.03038763385654942
0.020000000000000018,-1.0,0.08685046843825678
0.040000000000000036,-1.0,0.14194361925073784
0.06000000000000005,-1.0,0.1947982343946266
0.08000000000000007,-1.0,0.24458076501528772
0.10000000000000009,-1.0,0.2905061108661905
0.1200000000000001,-1.0,0.3318500018087948
0.14000000000000012,-1.0,0.3679604199852923
0.15999999999999992,-1.0,0.3982678825297213
0.17999999999999994,-1.0,0.4222944226529553
0.19999999999999996,-1.0,0.439661127464492
0.21999999999999997,-1.0,0.4500941136550861
0.24,-1.0,0.45342884680014856
0.26,-1.0,0.44961273616590997
0.28,-1.0,0.4387059640967052
0.30000000000000004,-1.0,0.4208805369034555
0.32000000000000006,-1.0,0.3964175722213925
0.3400000000000001,-1.0,0.3657028656170191
0.3600000000000001,-1.0,0.32922080636156253
0.3800000000000001,-1.0,0.28754673832280686
0.40000000000000013,-1.0,0.24133788644860532
0.41999999999999993,-1.0,0.19132299193684416
0.43999999999999995,-1.0,0.1382908195514233
0.45999999999999996,-1.0,0.08307771833074533
0.48,-1.0,0.02655443186376815
0.5,-1.0,-0.03038763385654944
0.52,-1.0,-0.0868504684382567
0.54,-1.0,-0.14194361925073773
0.56,-1.0,-0.19479823439462668
0.5800000000000001,-1.0,-0.24458076501528764
0.6000000000000001,-1.0,-0.2905061108661905
0.6200000000000001,-1.0,-0.3318500018087948
0.6400000000000001,-1.0,-0.3679604199852921
0.6600000000000001,-1.0,-0.398267882529721
0.6799999999999999,-1.0,-0.4222944226529552
0.7,-1.0,-0.4396611274644918
0.72,-1.0,-0.45009411365508617
0.74,-1.0,-0.4534288468001487
0.76,-1.0,-0.4496127361659098
0.78,-1.0,-0.43870596409670515
0.8,-1.0,-0.4208805369034555
0.8200000000000001,-1.0,-0.39641757222139234
0.8400000000000001,-1.0,-0.3657028656170192
0.8600000000000001,-1.0,-0.3292208063615624
0.8800000000000001,-1.0,-0.28754673832280686
0.9000000000000001,-1.0,-0.24133788644860532
0.9199999999999999,-1.0,-0.19132299193684407
0.94,-1.0,-0.13829081955142328
0.96,-1.0,-0.08307771833074531
0.98,-1.0,-0.026554431863768123
1.0,-1.0,0.030387633856549492

-1.0,-0.98,0.0868504684382568
-0.98,-0.98,0.14958662234622377
-0.96,-0.98,0.20996370586107435
-0.94,-0.98,0.2670295363082574
-0.92,-0.98,0.3198841514521461
-0.9,-0.98,0.3676940024381051
-0.88,-0.98,0.4097050993558652
-0.86,-0.98,0.44525490211082014
-0.84,-0.98,0.47378276907710115
-0.8200000000000001,-0.98,0.4948387987509284
-0.8,-0.98,0.5080909249660833
-0.78,-0.98,0.5133301537757162
-0.76,-0.98,0.5104738594117365
-0.74,-0.98,0.49956708734253186
-0.72,-0.98,0.48078184387902273
-0.7,-0.98,0.4544143835323893
-0.6799999999999999,-0.98,0.4208805369034554
-0.6599999999999999,-0.98,0.3807091527857078
-0.64,-0.98,0.33453375790390544
-0.62,-0.98,0.28308256581917807
-0.6,-0.98,0.22716699256615455
-0.5800000000000001,-0.98,0.16766886013737903
-0.56,-0.98,0.10552648962371503
-0.54,-0.98,0.04171990333021576
-0.52,-0.98,-0.022744630761063322
-0.5,-0.98,-0.08685046843825667
-0.48,-0.98,-0.14958662234622375
-0.45999999999999996,-0.98,-0.20996370586107418
-0.43999999999999995,-0.98,-0.2670295363082575
-0.42000000000000004,-0.98,-0.3198841514521462
-0.4,-0.98,-0.36769400243810535
-0.38,-0.98,-0.4097050993558653
-0.36,-0.98,-0.4452549021108201
-0.33999999999999997,-0.98,-0.47378276907710115
-0.31999999999999995,-0.98,-0.4948387987509286
-0.29999999999999993,-0.98,-0.5080909249660834
-0.28,-0.98,-0.5133301537757163
-0.26,-0.98,-0.5104738594117366
-0.24,-0.98,-0.499567087342532
-0.21999999999999997,-0.98,-0.48078184387902284
-0.19999999999999996,-0.98,-0.45441438353238944
-0.17999999999999994,-0.98,-0.42088053690345534
-0.16000000000000003,-0.98,-0.3807091527857078
-0.14,-0.98,-0.3345337579039055
-0.12,-0.98,-0.2830825658191782
-0.09999999999999998,-0.98,-0.22716699256615447
-0.07999999999999996,-0.98,-0.16766886013737894
-0.05999999999999994,-0.98,-0.10552648962371503
-0.040000000000000036,-0.98,-0.04171990333021566
-0.020000000000000018,-0.98,0.022744630761063363
0.0,-0.98,0.08685046843825675
0.020000000000000018,-0.98,0.14958662234622389
0.040000000000000036,-0.98,0.20996370586107413
0.06000000000000005,-0.98,0.2670295363082575
0.08000000000000007,-0.98,0.3198841514521463
0.10000000000000009,-0.98,0.3676940024381054
0.1200000000000001,-0.98,0.40970509935586535
0.14000000000000012,-0.98,0.4452549021108202
0.15999999999999992,-0.98,0.47378276907710115
0.17999999999999994,-0.98,0.4948387987509287
0.19999999999999996,-0.98,0.5080909249660833
0.21999999999999997,-0.98,0.5133301537757161
0.24,-0.98,0.5104738594117368
0.26,-0.98,0.49956708734253197
0.28,-0.98,0.48078184387902273
0.30000000000000004,-0.98,0.4544143835323893
0.32000000000000006,-0.98,0.4208805369034553
0.3400000000000001,-0.98,0.380709152785708
0.3600000000000001,-0.98,0.3345337579039055
0.3800000000000001,-0.98,0.28308256581917807
0.40000000000000013,-0.98,0.22716699256615444
0.41999999999999993,-0.98,0.16766886013737886
0.43999999999999995,-0.98,0.10552648962371494
0.45999999999999996,-0.98,0.04171990333021572
0.48,-0.98,-0.02274463076106338
0.5,-0.98,-0.08685046843825672
0.52,-0.98,-0.14958662234622377
0.54,-0.98,-0.20996370586107424
0.56,-0.98,-0.26702953630825743
0.5800000000000001,-0.98,-0.31988415145214627
0.6000000000000001,-0.98,-0.36769400243810535
0.6200000000000001,-0.98,-0.4097050993558652
0.6400000000000001,-0.98,-0.44525490211081986
0.6600000000000001,-0.98,-0.47378276907710104
0.6799999999999999,-0.98,-0.4948387987509285
0.7,-0.98,-0.5080909249660835
0.72,-0.98,-0.5133301537757163
0.74,-0.98,-0.5104738594117367
0.76,-0.98,-0.49956708734253186
0.78,-0.98,-0.48078184387902284
0.8,-0.98,-0.45441438353238917
0.8200000000000001,-0.98,-0.42088053690345545
0.8400000000000001,-0.98,-0.38070915278570794
0.8600000000000001,-0.98,-0.3345337579039055
0.8800000000000001,-0.98,-0.283082565819178
0.9000000000000001,-0.98,-0.22716699256615433
0.9199999999999999,-0.98,-0.16766886013737886
0.94,-0.98,-0.10552648962371494
0.96,-0.98,-0.04171990333021568
0.98,-0.98,0.022744630761063433
1.0,-0.98,0.0868504684382568

-1.0,-0.96,0.14194361925073773
-0.98,-0.96,0.20996370586107435
-0.96,-0.96,0.2746725394037434
-0.94,-0.96,0.3350496229185937
-0.92,-0.96,0.3901427737310749
-0.9,-0.96,0.43908313994182097
-0.88,-0.96,0.4810989027401309
-0.86,-0.96,0.5155274484476744
-0.84,-0.96,0.5418258183320274
-0.8200000000000001,-0.96,0.5595792713902292
-0.8,-0.96,0.5685078250621532
-0.78,-0.96,0.5684706707227338
-0.76,-0.96,0.5594683943180994
-0.74,-0.96,0.5416429671248496
-0.72,-0.96,0.515275506778216
-0.7,-0.96,0.4807818438790225
-0.6799999999999999,-0.96,0.43870596409670465
-0.6599999999999999,-0.96,0.3897114291903417
-0.64,-0.96,0.33457091224332336
-0.62,-0.96,0.27415401214725293
-0.6,-0.96,0.20941353950795163
-0.5800000000000001,-0.96,0.1413704902530253
-0.56,-0.96,0.07109794391617136
-0.54,-0.96,-0.0002958594680936774
-0.52,-0.96,-0.07168499697180908
-0.5,-0.96,-0.14194361925073767
-0.48,-0.96,-0.20996370586107418
-0.45999999999999996,-0.96,-0.27467253940374353
-0.43999999999999995,-0.96,-0.33504962291859375
-0.42000000000000004,-0.96,-0.39014277373107503
-0.4,-0.96,-0.43908313994182113
-0.38,-0.96,-0.4810989027401308
-0.36,-0.96,-0.5155274484476743
-0.33999999999999997,-0.96,-0.5418258183320276
-0.31999999999999995,-0.96,-0.5595792713902293
-0.29999999999999993,-0.96,-0.5685078250621532
-0.28,-0.96,-0.5684706707227338
-0.26,-0.96,-0.5594683943180994
-0.24,-0.96,-0.5416429671248496
-0.21999999999999997,-0.96,-0.5152755067782161
-0.19999999999999996,-0.96,-0.48078184387902245
-0.17999999999999994,-0.96,-0.4387059640967046
-0.16000000000000003,-0.96,-0.3897114291903418
-0.14,-0.96,-0.3345709122433234
-0.12,-0.96,-0.27415401214725277
-0.09999999999999998,-0.96,-0.20941353950795152
-0.07999999999999996,-0.96,-0.1413704902530253
-0.05999999999999994,-0.96,-0.0710979439161713
-0.040000000000000036,-0.96,0.0002958594680937017
-0.020000000000000018,-0.96,0.07168499697180919
0.0,-0.96,0.14194361925073778
0.020000000000000018,-0.96,0.20996370586107413
0.040000000000000036,-0.96,0.27467253940374353
0.06000000000000005,-0.96,0.33504962291859386
0.08000000000000007,-0.96,0.39014277373107514
0.10000000000000009,-0.96,0.4390831399418212
0.1200000000000001,-0.96,0.481098902740131
0.14000000000000012,-0.96,0.5155274484476743
0.15999999999999992,-0.96,0.5418258183320276
0.17999999999999994,-0.96,0.5595792713902293
0.19999999999999996,-0.96,0.568507825062153
0.21999999999999997,-0.96,0.568470670722734
0.24,-0.96,0.5594683943180994
0.26,-0.96,0.5416429671248495
0.28,-0.96,0.515275506778216
0.30000000000000004,-0.96,0.4807818438790225
0.32000000000000006,-0.96,0.4387059640967047
0.3400000000000001,-0.96,0.38971142919034185
0.3600000000000001,-0.96,0.3345709122433233
0.3800000000000001,-0.96,0.27415401214725277
0.40000000000000013,-0.96,0.20941353950795147
0.41999999999999993,-0.96,0.14137049025302523
0.43999999999999995,-0.96,0.07109794391617137
0.45999999999999996,-0.96,-0.000295859468093726
0.48,-0.96,-0.07168499697180916
0.5,-0.96,-0.14194361925073773
0.52,-0.96,-0.20996370586107424
0.54,-0.96,-0.2746725394037435
0.56,-0.96,-0.3350496229185938
0.5800000000000001,-0.96,-0.39014277373107503
0.6000000000000001,-0.96,-0.439083139941821
0.6200000000000001,-0.96,-0.4810989027401305
0.6400000000000001,-0.96,-0.5155274484476742
0.6600000000000001,-0.96,-0.5418258183320274
0.6799999999999999,-0.96,-0.5595792713902296
0.7,-0.96,-0.5685078250621532
0.72,-0.96,-0.5684706707227338
0.74,-0.96,-0.5594683943180992
0.76,-0.96,-0.5416429671248496
0.78,-0.96,-0.5152755067782159
0.8,-0.96,-0.4807818438790227
0.8200000000000001,-0.96,-0.4387059640967048
0.8400000000000001,-0.96,-0.38971142919034185
0.8600000000000001,-0.96,-0.33457091224332325
0.8800000000000001,-0.96,-0.27415401214725266
0.9000000000000001,-0.96,-0.20941353950795152
0.9199999999999999,-0.96,-0.14137049025302525
0.94,-0.96,-0.0710979439161713
0.96,-0.96,0.00029585946809378844
0.98,-0.96,0.07168499697180927
1.0,-0.96,0.14194361925073773

-1.0,-0.94,0.19479823439462676
-0.98,-0.94,0.26702953630825726
-0.96,-0.94,0.3350496229185937
-0.94,-0.94,0.397785776826561
-0.92,-0.94,0.45424861140826855
-0.9,-0.94,0.5035476740331009
-0.88,-0.94,0.5449054890336302
-0.86,-0.94,0.5776698189613382
-0.84,-0.94,0.6013239507608025
-0.8200000000000001,-0.94,0.6154948446432525
-0.8,-0.94,0.6199590171468797
-0.78,-0.94,0.6146460656045358
-0.76,-0.94,0.5996397784358466
-0.74,-0.94,0.5751768137537834
-0.72,-0.94,0.5416429671248492
-0.7,-0.94,0.49956708734253136
-0.6799999999999999,-0.94,0.44961273616590886
-0.6599999999999999,-0.94,0.39256772355432
-0.64,-0.94,0.32933168343368885
-0.62,-0.94,0.26090188593209684
-0.6,-0.94,0.1883575098341237
-0.5800000000000001,-0.94,0.112842623286744
-0.56,-0.94,0.03554814116121667
-0.54,-0.94,-0.042306956385853405
-0.52,-0.94,-0.11949484795776796
-0.5,-0.94,-0.1947982343946266
-0.48,-0.94,-0.26702953630825743
-0.45999999999999996,-0.94,-0.33504962291859375
-0.43999999999999995,-0.94,-0.39778577682656113
-0.42000000000000004,-0.94,-0.4542486114082687
-0.4,-0.94,-0.5035476740331006
-0.38,-0.94,-0.5449054890336302
-0.36,-0.94,-0.5776698189613383
-0.33999999999999997,-0.94,-0.6013239507608025
-0.31999999999999995,-0.94,-0.6154948446432524
-0.29999999999999993,-0.94,-0.6199590171468796
-0.28,-0.94,-0.6146460656045358
-0.26,-0.94,-0.5996397784358466
-0.24,-0.94,-0.5751768137537835
-0.21999999999999997,-0.94,-0.541642967124849
-0.19999999999999996,-0.94,-0.4995670873425312
-0.17999999999999994,-0.94,-0.449612736165909
-0.16000000000000003,-0.94,-0.3925677235543201
-0.14,-0.94,-0.3293316834336887
-0.12,-0.94,-0.2609018859320967
-0.09999999999999998,-0.94,-0.18835750983412367
-0.07999999999999996,-0.94,-0.11284262328674398
-0.05999999999999994,-0.94,-0.03554814116121664
-0.040000000000000036,-0.94,0.04230695638585349
-0.020000000000000018,-0.94,0.11949484795776807
0.0,-0.94,0.19479823439462657
0.020000000000000018,-0.94,0.26702953630825743
0.040000000000000036,-0.94,0.33504962291859386
0.06000000000000005,-0.94,0.39778577682656124
0.08000000000000007,-0.94,0.45424861140826883
0.10000000000000009,-0.94,0.5035476740331009
0.1200000000000001,-0.94,0.5449054890336302
0.14000000000000012,-0.94,0.5776698189613383
0.15999999999999992,-0.94,0.6013239507608025
0.17999999999999994,-0.94,0.6154948446432522
0.19999999999999996,-0.94,0.61995901714688
0.21999999999999997,-0.94,0.6146460656045359
0.24,-0.94,0.5996397784358465
0.26,-0.94,0.5751768137537832
0.28,-0.94,0.5416429671248492
0.30000000000000004,-0.94,0.49956708734253125
0.32000000000000006,-0.94,0.44961273616590897
0.3400000000000001,-0.94,0.3925677235543199
0.3600000000000001,-0.94,0.32933168343368874
0.3800000000000001,-0.94,0.2609018859320966
0.40000000000000013,-0.94,0.18835750983412358
0.41999999999999993,-0.94,0.11284262328674406
0.43999999999999995,-0.94,0.03554814116121662
0.45999999999999996,-0.94,-0.04230695638585351
0.48,-0.94,-0.11949484795776805
0.5,-0.94,-0.19479823439462665
0.52,-0.94,-0.2670295363082573
0.54,-0.94,-0.3350496229185938
0.56,-0.94,-0.397785776826561
0.5800000000000001,-0.94,-0.4542486114082686
0.6000000000000001,-0.94,-0.5035476740331004
0.6200000000000001,-0.94,-0.5449054890336301
0.6400000000000001,-0.94,-0.5776698189613381
0.6600000000000001,-0.94,-0.6013239507608027
0.6799999999999999,-0.94,-0.6154948446432524
0.7,-0.94,-0.6199590171468797
0.72,-0.94,-0.6146460656045357
0.74,-0.94,-0.5996397784358465
0.76,-0.94,-0.5751768137537832
0.78,-0.94,-0.5416429671248493
0.8,-0.94,-0.4995670873425314
0.8200000000000001,-0.94,-0.449612736165909
0.8400000000000001,-0.94,-0.3925677235543199
0.8600000000000001,-0.94,-0.32933168343368857
0.8800000000000001,-0.94,-0.2609018859320967
0.9000000000000001,-0.94,-0.18835750983412358
0.9199999999999999,-0.94,-0.11284262328674398
0.94,-0.94,-0.03554814116121654
0.96,-0.94,0.04230695638585357
0.98,-0.94,0.11949484795776805
1.0,-0.94,0.19479823439462676

-1.0,-0.92,0.2445807650152875
-0.98,-0.92,0.31988415145214605
-0.96,-0.92,0.3901427737310749
-0.94,-0.92,0.45424861140826855
-0.92,-0.92,0.511190677128587
-0.9,-0.92,0.560070960500078
-0.88,-0.92,0.600118590254308
-0.86,-0.92,0.6307019913467584
-0.84,-0.92,0.6513388452725632
-0.8200000000000001,-0.92,0.6617036965174532
-0.8,-0.92,0.6616330851856348
-0.78,-0.92,0.651128124859992
-0.76,-0.92,0.6303544850402195
-0.74,-0.92,0.5996397784358458
-0.72,-0.92,0.5594683943180984
-0.7,-0.92,0.5104738594117353
-0.6799999999999999,-0.92,0.45342884680014645
-0.6599999999999999,-0.92,0.3892329904092558
-0.64,-0.92,0.3188986972430933
-0.62,-0.92,0.24353518112055966
-0.6,-0.92,0.16433096971088923
-0.5800000000000001,-0.92,0.08253516074231511
-0.56,-0.92,-0.000562277015280669
-0.54,-0.92,-0.08365084732845754
-0.52,-0.92,-0.16542019380867082
-0.5,-0.92,-0.24458076501528755
-0.48,-0.92,-0.31988415145214605
-0.45999999999999996,-0.92,-0.39014277373107503
-0.43999999999999995,-0.92,-0.45424861140826867
-0.42000000000000004,-0.92,-0.5111906771285868
-0.4,-0.92,-0.560070960500078
-0.38,-0.92,-0.600118590254308
-0.36,-0.92,-0.6307019913467584
-0.33999999999999997,-0.92,-0.6513388452725634
-0.31999999999999995,-0.92,-0.661703696517453
-0.29999999999999993,-0.92,-0.6616330851856348
-0.28,-0.92,-0.651128124859992
-0.26,-0.92,-0.6303544850402197
-0.24,-0.92,-0.5996397784358458
-0.21999999999999997,-0.92,-0.5594683943180982
-0.19999999999999996,-0.92,-0.5104738594117355
-0.17999999999999994,-0.92,-0.4534288468001465
-0.16000000000000003,-0.92,-0.3892329904092556
-0.14,-0.92,-0.3188986972430931
-0.12,-0.92,-0.24353518112055966
-0.09999999999999998,-0.92,-0.1643309697108892
-0.07999999999999996,-0.92,-0.08253516074231511
-0.05999999999999994,-0.92,0.0005622770152807384
-0.040000000000000036,-0.92,0.08365084732845766
-0.020000000000000018,-0.92,0.16542019380867085
0.0,-0.92,0.24458076501528758
0.020000000000000018,-0.92,0.3198841514521462
0.040000000000000036,-0.92,0.39014277373107514
0.06000000000000005,-0.92,0.4542486114082688
0.08000000000000007,-0.92,0.5111906771285869
0.10000000000000009,-0.92,0.560070960500078
0.1200000000000001,-0.92,0.6001185902543081
0.14000000000000012,-0.92,0.6307019913467585
0.15999999999999992,-0.92,0.651338845272563
0.17999999999999994,-0.92,0.6617036965174533
0.19999999999999996,-0.92,0.6616330851856348
0.21999999999999997,-0.92,0.6511281248599922
0.24,-0.92,0.6303544850402194
0.26,-0.92,0.5996397784358458
0.28,-0.92,0.5594683943180982
0.30000000000000004,-0.92,0.5104738594117354
0.32000000000000006,-0.92,0.4534288468001463
0.3400000000000001,-0.92,0.38923299040925574
0.3600000000000001,-0.92,0.31889869724309317
0.3800000000000001,-0.92,0.24353518112055955
0.40000000000000013,-0.92,0.16433096971088934
0.41999999999999993,-0.92,0.08253516074231508
0.43999999999999995,-0.92,-0.0005622770152807384
0.45999999999999996,-0.92,-0.08365084732845765
0.48,-0.92,-0.1654201938086709
0.5,-0.92,-0.2445807650152875
0.52,-0.92,-0.31988415145214616
0.54,-0.92,-0.3901427737310749
0.56,-0.92,-0.45424861140826855
0.5800000000000001,-0.92,-0.5111906771285866
0.6000000000000001,-0.92,-0.5600709605000778
0.6200000000000001,-0.92,-0.6001185902543079
0.6400000000000001,-0.92,-0.6307019913467586
0.6600000000000001,-0.92,-0.6513388452725632
0.6799999999999999,-0.92,-0.6617036965174533
0.7,-0.92,-0.6616330851856346
0.72,-0.92,-0.651128124859992
0.74,-0.92,-0.6303544850402194
0.76,-0.92,-0.599639778435846
0.78,-0.92,-0.5594683943180986
0.8,-0.92,-0.5104738594117356
0.8200000000000001,-0.92,-0.4534288468001462
0.8400000000000001,-0.92,-0.3892329904092555
0.8600000000000001,-0.92,-0.31889869724309317
0.8800000000000001,-0.92,-0.24353518112055955
0.9000000000000001,-0.92,-0.16433096971088923
0.9199999999999999,-0.92,-0.08253516074231497
0.94,-0.92,0.0005622770152808286
0.96,-0.92,0.08365084732845765
0.98,-0.92,0.16542019380867098
1.0,-0.92,0.2445807650152875

-1.0,-0.9,0.29050611086619027
-0.98,-0.9,0.3676940024381052
-0.96,-0.9,0.4390831399418209
-0.94,-0.9,0.5035476740331007
-0.92,-0.9,0.5600709605000779
-0.9,-0.9,0.6077615933497941
-0.88,-0.9,0.6458674628132062
-0.86,-0.9,0.6737876165655332
-0.84,-0.9,0.6910817371034094
-0.8200000000000001,-0.9,0.6974770858149457
-0.8,-0.9,0.692872804230565
-0.78,-0.9,0.6773415046213179
-0.76,-0.9,0.651128124859991
-0.74,-0.9,0.6146460656045342
-0.72,-0.9,0.5684706707227317
-0.7,-0.9,0.5133301537757133
-0.6799999999999999,-0.9,0.4500941136550821
-0.6599999999999999,-0.9,0.3797598204889196
-0.64,-0.9,0.3034364880961266
-0.62,-0.9,0.2223277810218858
-0.6,-0.9,0.13771283202875118
-0.5800000000000001,-0.9,0.05092606940886464
-0.56,-0.9,-0.03666382774735899
-0.54,-0.9,-0.12367551443809797
-0.52,-0.9,-0.20873676438597702
-0.5,-0.9,-0.29050611086619027
-0.48,-0.9,-0.3676940024381052
-0.45999999999999996,-0.9,-0.43908313994182097
-0.43999999999999995,-0.9,-0.5035476740331006
-0.42000000000000004,-0.9,-0.5600709605000779
-0.4,-0.9,-0.6077615933497942
-0.38,-0.9,-0.6458674628132061
-0.36,-0.9,-0.6737876165655333
-0.33999999999999997,-0.9,-0.6910817371034091
-0.31999999999999995,-0.9,-0.6974770858149456
-0.29999999999999993,-0.9,-0.692872804230565
-0.28,-0.9,-0.677341504621318
-0.26,-0.9,-0.6511281248599912
-0.24,-0.9,-0.6146460656045343
-0.21999999999999997,-0.9,-0.5684706707227319
-0.19999999999999996,-0.9,-0.5133301537757133
-0.17999999999999994,-0.9,-0.4500941136550819
-0.16000000000000003,-0.9,-0.37975982048891943
-0.14,-0.9,-0.3034364880961266
-0.12,-0.9,-0.2223277810218858
-0.09999999999999998,-0.9,-0.13771283202875123
-0.07999999999999996,-0.9,-0.05092606940886462
-0.05999999999999994,-0.9,0.036663827747359115
-0.040000000000000036,-0.9,0.12367551443809799
-0.020000000000000018,-0.9,0.20873676438597707
0.0,-0.9,0.2905061108661904
0.020000000000000018,-0.9,0.36769400243810535
0.040000000000000036,-0.9,0.4390831399418211
0.06000000000000005,-0.9,0.5035476740331005
0.08000000000000007,-0.9,0.5600709605000781
0.10000000000000009,-0.9,0.6077615933497943
0.1200000000000001,-0.9,0.6458674628132064
0.14000000000000012,-0.9,0.6737876165655331
0.15999999999999992,-0.9,0.6910817371034096
0.17999999999999994,-0.9,0.6974770858149456
0.19999999999999996,-0.9,0.6928728042305652
0.21999999999999997,-0.9,0.6773415046213179
0.24,-0.9,0.651128124859991
0.26,-0.9,0.6146460656045343
0.28,-0.9,0.5684706707227317
0.30000000000000004,-0.9,0.5133301537757131
0.32000000000000006,-0.9,0.45009411365508206
0.3400000000000001,-0.9,0.37975982048891954
0.3600000000000001,-0.9,0.3034364880961265
0.3800000000000001,-0.9,0.22232778102188594
0.40000000000000013,-0.9,0.13771283202875118
0.41999999999999993,-0.9,0.05092606940886461
0.43999999999999995,-0.9,-0.036663827747359115
0.45999999999999996,-0.9,-0.12367551443809802
0.48,-0.9,-0.20873676438597696
0.5,-0.9,-0.2905061108661903
0.52,-0.9,-0.3676940024381052
0.54,-0.9,-0.4390831399418209
0.56,-0.9,-0.5035476740331004
0.5800000000000001,-0.9,-0.5600709605000778
0.6000000000000001,-0.9,-0.607761593349794
0.6200000000000001,-0.9,-0.6458674628132064
0.6400000000000001,-0.9,-0.6737876165655332
0.6600000000000001,-0.9,-0.6910817371034095
0.6799999999999999,-0.9,-0.6974770858149454
0.7,-0.9,-0.692872804230565
0.72,-0.9,-0.6773415046213178
0.74,-0.9,-0.6511281248599912
0.76,-0.9,-0.6146460656045346
0.78,-0.9,-0.5684706707227319
0.8,-0.9,-0.513330153775713
0.8200000000000001,-0.9,-0.45009411365508184
0.8400000000000001,-0.9,-0.3797598204889195
0.8600000000000001,-0.9,-0.3034364880961265
0.8800000000000001,-0.9,-0.2223277810218858
0.9000000000000001,-0.9,-0.13771283202875106
0.9199999999999999,-0.9,-0.0509260694088645
0.94,-0.9,0.03666382774735914
0.96,-0.9,0.12367551443809813
0.98,-0.9,0.208736764385977
1.0,-0.9,0.29050611086619027

-1.0,-0.88,0.33185000180879465
-0.98,-0.88,0.4097050993558651
-0.96,-0.88,0.4810989027401307
-0.94,-0.88,0.5449054890336302
-0.92,-0.88,0.6001185902543078
-0.9,-0.88,0.6458674628132062
-0.88,-0.88,0.6814306196610195
-0.86,-0.88,0.7062472085698572
-0.84,-0.88,0.7199258571079158
-0.8200000000000001,-0.88,0.7222508448165209
-0.8,-0.88,0.7131855052506283
-0.78,-0.88,0.6928728042305636
-0.76,-0.88,0.6616330851856324
-0.74,-0.88,0.6199590171468765
-0.72,-0.88,0.568507825062149
-0.7,-0.88,0.5080909249660784
-0.6799999999999999,-0.88,0.43966112746448643
-0.6599999999999999,-0.88,0.36429761134195293
-0.64,-0.88,0.2831889042677122
-0.62,-0.88,0.1976141390043182
-0.6,-0.88,0.10892288071986134
-0.5800000000000001,-0.88,0.018513843539077198
-0.56,-0.88,-0.07218716801395252
-0.54,-0.88,-0.1617497448048783
-0.52,-0.88,-0.24876143149561727
-0.5,-0.88,-0.3318500018087946
-0.48,-0.88,-0.4097050993558651
-0.45999999999999996,-0.88,-0.48109890274013056
-0.43999999999999995,-0.88,-0.5449054890336301
-0.42000000000000004,-0.88,-0.600118590254308
-0.4,-0.88,-0.6458674628132062
-0.38,-0.88,-0.6814306196610194
-0.36,-0.88,-0.706247208569857
-0.33999999999999997,-0.88,-0.7199258571079157
-0.31999999999999995,-0.88,-0.722250844816521
-0.29999999999999993,-0.88,-0.7131855052506284
-0.28,-0.88,-0.6928728042305637
-0.26,-0.88,-0.6616330851856325
-0.24,-0.88,-0.6199590171468765
-0.21999999999999997,-0.88,-0.568507825062149
-0.19999999999999996,-0.88,-0.5080909249660783
-0.17999999999999994,-0.88,-0.4396611274644863
-0.16000000000000003,-0.88,-0.36429761134195304
-0.14,-0.88,-0.2831889042677122
-0.12,-0.88,-0.19761413900431832
-0.09999999999999998,-0.88,-0.10892288071986138
-0.07999999999999996,-0.88,-0.018513843539077087
-0.05999999999999994,-0.88,0.07218716801395252
-0.040000000000000036,-0.88,0.16174974480487841
-0.020000000000000018,-0.88,0.2487614314956174
0.0,-0.88,0.3318500018087948
0.020000000000000018,-0.88,0.40970509935586513
0.040000000000000036,-0.88,0.4810989027401305
0.06000000000000005,-0.88,0.5449054890336305
0.08000000000000007,-0.88,0.600118590254308
0.10000000000000009,-0.88,0.6458674628132064
0.1200000000000001,-0.88,0.6814306196610194
0.14000000000000012,-0.88,0.7062472085698573
0.15999999999999992,-0.88,0.7199258571079157
0.17999999999999994,-0.88,0.7222508448165211
0.19999999999999996,-0.88,0.7131855052506281
0.21999999999999997,-0.88,0.6928728042305636
0.24,-0.88,0.6616330851856325
0.26,-0.88,0.6199590171468764
0.28,-0.88,0.5685078250621488
0.30000000000000004,-0.88,0.5080909249660784
0.32000000000000006,-0.88,0.4396611274644864
0.3400000000000001,-0.88,0.3642976113419529
0.3600000000000001,-0.88,0.2831889042677123
0.3800000000000001,-0.88,0.19761413900431826
0.40000000000000013,-0.88,0.10892288071986136
0.41999999999999993,-0.88,0.01851384353907708
0.43999999999999995,-0.88,-0.07218716801395259
0.45999999999999996,-0.88,-0.16174974480487836
0.48,-0.88,-0.24876143149561739
0.5,-0.88,-0.33185000180879465
0.52,-0.88,-0.4097050993558651
0.54,-0.88,-0.48109890274013045
0.56,-0.88,-0.54490548903363
0.5800000000000001,-0.88,-0.6001185902543078
0.6000000000000001,-0.88,-0.6458674628132064
0.6200000000000001,-0.88,-0.6814306196610194
0.6400000000000001,-0.88,-0.7062472085698573
0.6600000000000001,-0.88,-0.7199258571079155
0.6799999999999999,-0.88,-0.722250844816521
0.7,-0.88,-0.7131855052506282
0.72,-0.88,-0.6928728042305637
0.74,-0.88,-0.6616330851856326
0.76,-0.88,-0.6199590171468766
0.78,-0.88,-0.5685078250621488
0.8,-0.88,-0.5080909249660782
0.8200000000000001,-0.88,-0.4396611274644864
0.8400000000000001,-0.88,-0.3642976113419529
0.8600000000000001,-0.88,-0.2831889042677122
0.8800000000000001,-0.88,-0.19761413900431815
0.9000000000000001,-0.88,-0.10892288071986123
0.9199999999999999,-0.88,-0.018513843539077018
0.94,-0.88,0.07218716801395265
0.96,-0.88,0.1617497448048783
0.98,-0.88,0.2487614314956173
1.0,-0.88,0.33185000180879465

-1.0,-0.86,0.367960419985292
-0.98,-0.86,0.4452549021108199
-0.96,-0.86,0.5155274484476743
-0.94,-0.86,0.5776698189613381
-0.92,-0.86,0.6307019913467584
-0.9,-0.86,0.6737876165655332
-0.88,-0.86,0.7062472085698572
-0.86,-0.86,0.7275688602034021
-0.84,-0.86,0.7374163162829688
-0.8200000000000001,-0.86,0.7356342765435979
-0.8,-0.86,0.722250844816519
-0.78,-0.86,0.6974770858149422
-0.76,-0.86,0.6617036965174486
-0.74,-0.86,0.615494844643247
-0.72,-0.86,0.5595792713902233
-0.7,-0.86,0.4948387987509222
-0.6799999999999999,-0.86,0.4222944226529494
-0.6599999999999999,-0.86,0.34309021124327904
-0.64,-0.86,0.25847526225014467
-0.62,-0.86,0.16978400396568788
-0.6,-0.86,0.07841515051464441
-0.5800000000000001,-0.86,-0.014190356702955684
-0.56,-0.86,-0.10657207351844193
-0.54,-0.86,-0.19727308507147168
-0.52,-0.86,-0.28486298222769585
-0.5,-0.86,-0.367960419985292
-0.48,-0.86,-0.44525490211081975
-0.45999999999999996,-0.86,-0.5155274484476742
-0.43999999999999995,-0.86,-0.5776698189613381
-0.42000000000000004,-0.86,-0.6307019913467584
-0.4,-0.86,-0.6737876165655331
-0.38,-0.86,-0.706247208569857
-0.36,-0.86,-0.7275688602034018
-0.33999999999999997,-0.86,-0.7374163162829689
-0.31999999999999995,-0.86,-0.735634276543598
-0.29999999999999993,-0.86,-0.722250844816519
-0.28,-0.86,-0.6974770858149423
-0.26,-0.86,-0.6617036965174486
-0.24,-0.86,-0.615494844643247
-0.21999999999999997,-0.86,-0.5595792713902233
-0.19999999999999996,-0.86,-0.4948387987509221
-0.17999999999999994,-0.86,-0.4222944226529495
-0.16000000000000003,-0.86,-0.34309021124327915
-0.14,-0.86,-0.2584752622501448
-0.12,-0.86,-0.169784003965688
-0.09999999999999998,-0.86,-0.07841515051464434
-0.07999999999999996,-0.86,0.014190356702955677
-0.05999999999999994,-0.86,0.10657207351844207
-0.040000000000000036,-0.86,0.19727308507147182
-0.020000000000000018,-0.86,0.284862982227696
0.0,-0.86,0.3679604199852921
0.020000000000000018,-0.86,0.44525490211081975
0.040000000000000036,-0.86,0.5155274484476744
0.06000000000000005,-0.86,0.5776698189613382
0.08000000000000007,-0.86,0.6307019913467586
0.10000000000000009,-0.86,0.6737876165655333
0.1200000000000001,-0.86,0.7062472085698573
0.14000000000000012,-0.86,0.727568860203402
0.15999999999999992,-0.86,0.737416316282969
0.17999999999999994,-0.86,0.7356342765435977
0.19999999999999996,-0.86,0.7222508448165189
0.21999999999999997,-0.86,0.6974770858149423
0.24,-0.86,0.6617036965174488
0.26,-0.86,0.6154948446432469
0.28,-0.86,0.5595792713902233
0.30000000000000004,-0.86,0.4948387987509221
0.32000000000000006,-0.86,0.42229442265294936
0.3400000000000001,-0.86,0.3430902112432792
0.3600000000000001,-0.86,0.2584752622501447
0.3800000000000001,-0.86,0.16978400396568796