TITLE = "Solution" 
VARIABLES = "x", "y", "sol" 
ZONE STRANDID=1, SOLUTIONTIME= 0.9400000000000006, I= 101, J =101, DATAPACKING=POINT 
-1.0,-1.0,-0.12691671595158763
-0.98,-1.0,-0.08301768858155925
-0.96,-1.0,-0.03780942267023629
-0.94,-1.0,0.007995120422850617
-0.92,-1.0,0.05367357569081579
-0.9,-1.0,0.0985055666070968
-0.88,-1.0,0.14178406589361092
-0.86,-1.0,0.18282654576328716
-0.84,-1.0,0.22098574179099165
-0.8200000000000001,-1.0,0.2556598606601691
-0.8,-1.0,0.28630207080293774
-0.78,-1.0,0.31242912626057706
-0.76,-1.0,0.3336289877609732
-0.74,-1.0,0.349567320824082
-0.72,-1.0,0.3599927684163991
-0.7,-1.0,0.3647409150015335
-0.6799999999999999,-1.0,0.3637368794714328
-0.6599999999999999,-1.0,0.35699649606618844
-0.64,-1.0,0.3446260646586107
-0.62,-1.0,0.3268206743417344
-0.6,-1.0,0.3038611267572814
-0.5800000000000001,-1.0,0.27610950768602716
-0.56,-1.0,0.24400347673873962
-0.54,-1.0,0.20804936520267037
-0.52,-1.0,0.1688141908946885
-0.5,-1.0,0.12691671595158774
-0.48,-1.0,0.08301768858155929
-0.45999999999999996,-1.0,0.03780942267023639
-0.43999999999999995,-1.0,-0.007995120422850513
-0.42000000000000004,-1.0,-0.05367357569081566
-0.4,-1.0,-0.09850556660709678
-0.38,-1.0,-0.1417840658936108
-0.36,-1.0,-0.18282654576328722
-0.33999999999999997,-1.0,-0.22098574179099179
-0.31999999999999995,-1.0,-0.2556598606601693
-0.29999999999999993,-1.0,-0.28630207080293796
-0.28,-1.0,-0.31242912626057695
-0.26,-1.0,-0.33362898776097333
-0.24,-1.0,-0.34956732082408204
-0.21999999999999997,-1.0,-0.35999276841639904
-0.19999999999999996,-1.0,-0.3647409150015335
-0.17999999999999994,-1.0,-0.36373687947143296
-0.16000000000000003,-1.0,-0.3569964960661886
-0.14,-1.0,-0.3446260646586108
-0.12,-1.0,-0.32682067434173456
-0.09999999999999998,-1.0,-0.30386112675728144
-0.07999999999999996,-1.0,-0.2761095076860272
-0.05999999999999994,-1.0,-0.24400347673873968
-0.040000000000000036,-1.0,-0.20804936520267037
-0.020000000000000018,-1.0,-0.1688141908946885
0.0,-1.0,-0.1269167159515877
0.020000000000000018,-1.0,-0.08301768858155927
0.040000000000000036,-1.0,-0.03780942267023628
0.06000000000000005,-1.0,0.007995120422850555
0.08000000000000007,-1.0,0.05367357569081576
0.10000000000000009,-1.0,0.09850556660709689
0.1200000000000001,-1.0,0.14178406589361084
0.14000000000000012,-1.0,0.1828265457632872
0.15999999999999992,-1.0,0.2209857417909918
0.17999999999999994,-1.0,0.25565986066016927
0.19999999999999996,-1.0,0.28630207080293785
0.21999999999999997,-1.0,0.3124291262605771
0.24,-1.0,0.33362898776097333
0.26,-1.0,0.3495673208240821
0.28,-1.0,0.3599927684163992
0.30000000000000004,-1.0,0.36474091500153344
0.32000000000000006,-1.0,0.36373687947143307
0.3400000000000001,-1.0,0.35699649606618866
0.3600000000000001,-1.0,0.34462606465861073
0.3800000000000001,-1.0,0.3268206743417345
0.40000000000000013,-1.0,0.3038611267572814
0.41999999999999993,-1.0,0.27610950768602727
0.43999999999999995,-1.0,0.24400347673873962
0.45999999999999996,-1.0,0.2080493652026703
0.48,-1.0,0.16881419089468847
0.5,-1.0,0.12691671595158766
0.52,-1.0,0.08301768858155922
0.54,-1.0,0.037809422670236334
0.56,-1.0,-0.007995120422850562
0.5800000000000001,-1.0,-0.05367357569081566
0.6000000000000001,-1.0,-0.0985055666070968
0.6200000000000001,-1.0,-0.1417840658936109
0.6400000000000001,-1.0,-0.18282654576328713
0.6600000000000001,-1.0,-0.22098574179099173
0.6799999999999999,-1.0,-0.25565986066016927
0.7,-1.0,-0.2863020708029378
0.72,-1.0,-0.31242912626057695
0.74,-1.0,-0.33362898776097316
0.76,-1.0,-0.349567320824082
0.78,-1.0,-0.35999276841639916
0.8,-1.0,-0.3647409150015335
0.8200000000000001,-1.0,-0.36373687947143296
0.8400000000000001,-1.0,-0.3569964960661886
0.8600000000000001,-1.0,-0.34462606465861073
0.8800000000000001,-1.0,-0.3268206743417343
0.9000000000000001,-1.0,-0.3038611267572814
0.9199999999999999,-1.0,-0.27610950768602716
0.94,-1.0,-0.24400347673873962
0.96,-1.0,-0.2080493652026703
0.98,-1.0,-0.16881419089468838
1.0,-1.0,-0.12691671595158763

-1.0,-0.98,-0.08301768858155922
-0.98,-0.98,-0.03034579973037996
-0.96,-0.98,0.022804660510249534
-0.94,-0.98,0.07559547763178862
-0.92,-0.98,0.12719410891252492
-0.9,-0.98,0.17678681311363328
-0.88,-0.98,0.22359148366461637
-0.86,-0.98,0.2668699829511302
-0.84,-0.98,0.30593978318610454
-0.8200000000000001,-0.98,0.34018473028066637
-0.8,-0.98,0.3690647609621944
-0.78,-0.98,0.3921244198947466
-0.76,-0.98,0.4090000424817842
-0.74,-0.98,0.4194254900741013
-0.72,-0.98,0.4232363471353065
-0.7,-0.98,0.4203725141730498
-0.6799999999999999,-0.98,0.41087915554391674
-0.6599999999999999,-0.98,0.39490598718454595
-0.64,-0.98,0.37270491550187285
-0.62,-0.98,0.34462606465861056
-0.6,-0.98,0.31111225490604955
-0.5800000000000001,-0.98,0.27269201904416773
-0.56,-0.98,0.22997126714364316
-0.54,-0.98,0.18362373098208742
-0.52,-0.98,0.13438033889144407
-0.5,-0.98,0.08301768858155928
-0.48,-0.98,0.03034579973038005
-0.45999999999999996,-0.98,-0.022804660510249444
-0.43999999999999995,-0.98,-0.07559547763178848
-0.42000000000000004,-0.98,-0.12719410891252486
-0.4,-0.98,-0.17678681311363315
-0.38,-0.98,-0.22359148366461645
-0.36,-0.98,-0.2668699829511303
-0.33999999999999997,-0.98,-0.3059397831861048
-0.31999999999999995,-0.98,-0.3401847302806665
-0.29999999999999993,-0.98,-0.3690647609621943
-0.28,-0.98,-0.3921244198947466
-0.26,-0.98,-0.40900004248178434
-0.24,-0.98,-0.41942549007410124
-0.21999999999999997,-0.98,-0.42323634713530656
-0.19999999999999996,-0.98,-0.42037251417304994
-0.17999999999999994,-0.98,-0.41087915554391696
-0.16000000000000003,-0.98,-0.39490598718454606
-0.14,-0.98,-0.3727049155018729
-0.12,-0.98,-0.3446260646586106
-0.09999999999999998,-0.98,-0.3111122549060496
-0.07999999999999996,-0.98,-0.2726920190441678
-0.05999999999999994,-0.98,-0.2299712671436432
-0.040000000000000036,-0.98,-0.18362373098208742
-0.020000000000000018,-0.98,-0.13438033889144405
0.0,-0.98,-0.08301768858155928
0.020000000000000018,-0.98,-0.030345799730379944
0.040000000000000036,-0.98,0.022804660510249472
0.06000000000000005,-0.98,0.07559547763178859
0.08000000000000007,-0.98,0.127194108912525
0.10000000000000009,-0.98,0.17678681311363312
0.1200000000000001,-0.98,0.22359148366461637
0.14000000000000012,-0.98,0.2668699829511304
0.15999999999999992,-0.98,0.30593978318610476
0.17999999999999994,-0.98,0.3401847302806665
0.19999999999999996,-0.98,0.3690647609621945
0.21999999999999997,-0.98,0.3921244198947466
0.24,-0.98,0.4090000424817844
0.26,-0.98,0.4194254900741014
0.28,-0.98,0.4232363471353065
0.30000000000000004,-0.98,0.42037251417305016
0.32000000000000006,-0.98,0.4108791555439169
0.3400000000000001,-0.98,0.394905987184546
0.3600000000000001,-0.98,0.37270491550187285
0.3800000000000001,-0.98,0.3446260646586105
0.40000000000000013,-0.98,0.3111122549060497
0.41999999999999993,-0.98,0.2726920190441677
0.43999999999999995,-0.98,0.2299712671436431
0.45999999999999996,-0.98,0.18362373098208737
0.48,-0.98,0.13438033889144396
0.5,-0.98,0.08301768858155922
0.52,-0.98,0.030345799730379996
0.54,-0.98,-0.0228046605102495
0.56,-0.98,-0.07559547763178848
0.5800000000000001,-0.98,-0.1271941089125249
0.6000000000000001,-0.98,-0.1767868131136332
0.6200000000000001,-0.98,-0.22359148366461634
0.6400000000000001,-0.98,-0.26686998295113035
0.6600000000000001,-0.98,-0.30593978318610476
0.6799999999999999,-0.98,-0.34018473028066637
0.7,-0.98,-0.3690647609621942
0.72,-0.98,-0.3921244198947465
0.74,-0.98,-0.4090000424817843
0.76,-0.98,-0.4194254900741014
0.78,-0.98,-0.4232363471353066
0.8,-0.98,-0.42037251417305
0.8200000000000001,-0.98,-0.41087915554391685
0.8400000000000001,-0.98,-0.394905987184546
0.8600000000000001,-0.98,-0.3727049155018727
0.8800000000000001,-0.98,-0.34462606465861056
0.9000000000000001,-0.98,-0.31111225490604955
0.9199999999999999,-0.98,-0.27269201904416773
0.94,-0.98,-0.2299712671436431
0.96,-0.98,-0.18362373098208729
0.98,-0.98,-0.13438033889144393
1.0,-0.98,-0.08301768858155922

-1.0,-0.96,-0.037809422670236306
-0.98,-0.96,0.022804660510249545
-0.96,-0.96,0.08305910057164498
-0.94,-0.96,0.14200364899992385
-0.92,-0.96,0.19870871505460613
-0.9,-0.96,0.25228002597004456
-0.88,-0.96,0.3018727301711526
-0.86,-0.96,0.34670472108743383
-0.84,-0.96,0.386068971440805
-0.8200000000000001,-0.96,0.41934468348813003
-0.8,-0.96,0.4460070793724753
-0.78,-0.96,0.4656356771834016
-0.76,-0.96,0.4779209222078747
-0.74,-0.96,0.48266906879300864
-0.72,-0.96,0.47980523583075185
-0.7,-0.96,0.4693745876776897
-0.6799999999999999,-0.96,0.4515416218861629
-0.6599999999999999,-0.96,0.42658757497960104
-0.64,-0.96,0.39490598718454584
-0.62,-0.96,0.3569964960661881
-0.6,-0.96,0.3134569569454968
-0.5800000000000001,-0.96,0.26497401436366536
-0.56,-0.96,0.21231227328751548
-0.54,-0.96,0.15630224083241684
-0.52,-0.96,0.0978272286689582
-0.5,-0.96,0.03780942267023639
-0.48,-0.96,-0.022804660510249437
-0.45999999999999996,-0.96,-0.08305910057164481
-0.43999999999999995,-0.96,-0.1420036489999238
-0.42000000000000004,-0.96,-0.19870871505460597
-0.4,-0.96,-0.2522800259700446
-0.38,-0.96,-0.30187273017115274
-0.36,-0.96,-0.34670472108743405
-0.33999999999999997,-0.96,-0.3860689714408051
-0.31999999999999995,-0.96,-0.4193446834881299
-0.29999999999999993,-0.96,-0.4460070793724753
-0.28,-0.96,-0.46563567718340176
-0.26,-0.96,-0.47792092220787474
-0.24,-0.96,-0.4826690687930087
-0.21999999999999997,-0.96,-0.47980523583075196
-0.19999999999999996,-0.96,-0.46937458767768986
-0.17999999999999994,-0.96,-0.45154162188616304
-0.16000000000000003,-0.96,-0.42658757497960115
-0.14,-0.96,-0.39490598718454584
-0.12,-0.96,-0.35699649606618805
-0.09999999999999998,-0.96,-0.31345695694549686
-0.07999999999999996,-0.96,-0.26497401436366547
-0.05999999999999994,-0.96,-0.2123122732875154
-0.040000000000000036,-0.96,-0.15630224083241676
-0.020000000000000018,-0.96,-0.09782722866895821
0.0,-0.96,-0.0378094226702363
0.020000000000000018,-0.96,0.022804660510249472
0.040000000000000036,-0.96,0.08305910057164492
0.06000000000000005,-0.96,0.14200364899992396
0.08000000000000007,-0.96,0.19870871505460594
0.10000000000000009,-0.96,0.25228002597004456
0.1200000000000001,-0.96,0.30187273017115285
0.14000000000000012,-0.96,0.3467047210874341
0.15999999999999992,-0.96,0.38606897144080515
0.17999999999999994,-0.96,0.41934468348813003
0.19999999999999996,-0.96,0.4460070793724753
0.21999999999999997,-0.96,0.4656356771834018
0.24,-0.96,0.4779209222078747
0.26,-0.96,0.48266906879300864
0.28,-0.96,0.4798052358307522
0.30000000000000004,-0.96,0.4693745876776899
0.32000000000000006,-0.96,0.4515416218861629
0.3400000000000001,-0.96,0.42658757497960104
0.3600000000000001,-0.96,0.3949059871845457
0.3800000000000001,-0.96,0.3569964960661882
0.40000000000000013,-0.96,0.3134569569454968
0.41999999999999993,-0.96,0.2649740143636653
0.43999999999999995,-0.96,0.21231227328751537
0.45999999999999996,-0.96,0.15630224083241667
0.48,-0.96,0.09782722866895813
0.5,-0.96,0.03780942267023636
0.52,-0.96,-0.022804660510249493
0.54,-0.96,-0.08305910057164487
0.56,-0.96,-0.14200364899992382
0.5800000000000001,-0.96,-0.19870871505460605
0.6000000000000001,-0.96,-0.25228002597004456
0.6200000000000001,-0.96,-0.3018727301711528
0.6400000000000001,-0.96,-0.34670472108743405
0.6600000000000001,-0.96,-0.386068971440805
0.6799999999999999,-0.96,-0.41934468348812975
0.7,-0.96,-0.4460070793724752
0.72,-0.96,-0.46563567718340165
0.74,-0.96,-0.47792092220787474
0.76,-0.96,-0.48266906879300875
0.78,-0.96,-0.479805235830752
0.8,-0.96,-0.4693745876776898
0.8200000000000001,-0.96,-0.451541621886163
0.8400000000000001,-0.96,-0.4265875749796009
0.8600000000000001,-0.96,-0.3949059871845459
0.8800000000000001,-0.96,-0.35699649606618816
0.9000000000000001,-0.96,-0.31345695694549686
0.9199999999999999,-0.96,-0.2649740143636653
0.94,-0.96,-0.21231227328751523
0.96,-0.96,-0.1563022408324167
0.98,-0.96,-0.09782722866895811
1.0,-0.96,-0.037809422670236306

-1.0,-0.94,0.007995120422850617
-0.98,-0.94,0.07559547763178862
-0.96,-0.94,0.14200364899992385
-0.94,-0.94,0.2061723379944625
-0.92,-0.94,0.2670895660574435
-0.9,-0.94,0.3237946321121255
-0.88,-0.94,0.37539326339286205
-0.86,-0.94,0.4210717186608275
-0.84,-0.94,0.4601096213894595
-0.8200000000000001,-0.94,0.4918913205326142
-0.8,-0.94,0.5159155997093373
-0.78,-0.94,0.5318035816856034
-0.76,-0.94,0.5393047034946262
-0.74,-0.94,0.5383006679645251
-0.72,-0.94,0.5288073093353917
-0.7,-0.94,0.5109743435438648
-0.6799999999999999,-0.94,0.48508300711337393
-0.6599999999999999,-0.94,0.45154162188616276
-0.64,-0.94,0.4108791555439164
-0.62,-0.94,0.3637368794714321
-0.6,-0.94,0.31085825552380364
-0.5800000000000001,-0.94,0.2530772111888444
-0.56,-0.94,0.191304988052439
-0.54,-0.94,0.1265157709743862
-0.52,-0.94,0.059731324611209155
-0.5,-0.94,-0.007995120422850506
-0.48,-0.94,-0.07559547763178845
-0.45999999999999996,-0.94,-0.14200364899992376
-0.43999999999999995,-0.94,-0.20617233799446233
-0.42000000000000004,-0.94,-0.26708956605744366
-0.4,-0.94,-0.3237946321121256
-0.38,-0.94,-0.3753932633928622
-0.36,-0.94,-0.4210717186608276
-0.33999999999999997,-0.94,-0.4601096213894594
-0.31999999999999995,-0.94,-0.4918913205326141
-0.29999999999999993,-0.94,-0.5159155997093374
-0.28,-0.94,-0.5318035816856036
-0.26,-0.94,-0.5393047034946262
-0.24,-0.94,-0.538300667964525
-0.21999999999999997,-0.94,-0.5288073093353918
-0.19999999999999996,-0.94,-0.510974343543865
-0.17999999999999994,-0.94,-0.4850830071133741
-0.16000000000000003,-0.94,-0.4515416218861627
-0.14,-0.94,-0.41087915554391635
-0.12,-0.94,-0.36373687947143224
-0.09999999999999998,-0.94,-0.3108582555238037
-0.07999999999999996,-0.94,-0.25307721118884424
-0.05999999999999994,-0.94,-0.1913049880524389
-0.040000000000000036,-0.94,-0.12651577097438624
-0.020000000000000018,-0.94,-0.059731324611209086
0.0,-0.94,0.007995120422850537
0.020000000000000018,-0.94,0.07559547763178856
0.040000000000000036,-0.94,0.14200364899992393
0.06000000000000005,-0.94,0.20617233799446227
0.08000000000000007,-0.94,0.2670895660574436
0.10000000000000009,-0.94,0.32379463211212567
0.1200000000000001,-0.94,0.3753932633928623
0.14000000000000012,-0.94,0.4210717186608277
0.15999999999999992,-0.94,0.46010962138945954
0.17999999999999994,-0.94,0.4918913205326141
0.19999999999999996,-0.94,0.5159155997093375
0.21999999999999997,-0.94,0.5318035816856035
0.24,-0.94,0.5393047034946261
0.26,-0.94,0.5383006679645254
0.28,-0.94,0.5288073093353919
0.30000000000000004,-0.94,0.5109743435438648
0.32000000000000006,-0.94,0.48508300711337393
0.3400000000000001,-0.94,0.4515416218861627
0.3600000000000001,-0.94,0.4108791555439165
0.3800000000000001,-0.94,0.3637368794714322
0.40000000000000013,-0.94,0.3108582555238036
0.41999999999999993,-0.94,0.25307721118884424
0.43999999999999995,-0.94,0.1913049880524388
0.45999999999999996,-0.94,0.12651577097438613
0.48,-0.94,0.059731324611209155
0.5,-0.94,-0.007995120422850562
0.52,-0.94,-0.07559547763178853
0.54,-0.94,-0.14200364899992385
0.56,-0.94,-0.20617233799446238
0.5800000000000001,-0.94,-0.2670895660574436
0.6000000000000001,-0.94,-0.3237946321121256
0.6200000000000001,-0.94,-0.3753932633928622
0.6400000000000001,-0.94,-0.4210717186608275
0.6600000000000001,-0.94,-0.4601096213894592
0.6799999999999999,-0.94,-0.491891320532614
0.7,-0.94,-0.5159155997093373
0.72,-0.94,-0.5318035816856036
0.74,-0.94,-0.5393047034946264
0.76,-0.94,-0.5383006679645251
0.78,-0.94,-0.5288073093353918
0.8,-0.94,-0.510974343543865
0.8200000000000001,-0.94,-0.4850830071133739
0.8400000000000001,-0.94,-0.45154162188616287
0.8600000000000001,-0.94,-0.4108791555439165
0.8800000000000001,-0.94,-0.3637368794714322
0.9000000000000001,-0.94,-0.3108582555238036
0.9199999999999999,-0.94,-0.25307721118884413
0.94,-0.94,-0.19130498805243884
0.96,-0.94,-0.12651577097438615
0.98,-0.94,-0.059731324611209086
1.0,-0.94,0.007995120422850617

-1.0,-0.92,0.053673575690815815
-0.98,-0.92,0.1271941089125249
-0.96,-0.92,0.19870871505460613
-0.94,-0.92,0.26708956605744344
-0.92,-0.92,0.3312582550519819
-0.9,-0.92,0.3902028034802611
-0.88,-0.92,0.4429936206018003
-0.86,-0.92,0.4887981636948879
-0.84,-0.92,0.5268940677526368
-0.8200000000000001,-0.92,0.5566805376106667
-0.8,-0.92,0.5776878228457423
-0.78,-0.92,0.5895846260205622
-0.76,-0.92,0.5921833274422538
-0.74,-0.92,0.585442944037009
-0.72,-0.92,0.5694697756776379
-0.7,-0.92,0.5445157287710758
-0.6799999999999999,-0.92,0.5109743435438645
-0.6599999999999999,-0.92,0.46937458767768925
-0.64,-0.92,0.420372514173049
-0.62,-0.92,0.3647409150015317
-0.6,-0.92,0.30335713371477935
-0.5800000000000001,-0.92,0.23718922921257718
-0.56,-0.92,0.16728070887571517
-0.54,-0.92,0.09473407183123136
-0.52,-0.92,0.02069342188257756
-0.5,-0.92,-0.053673575690815635
-0.48,-0.92,-0.1271941089125248
-0.45999999999999996,-0.92,-0.19870871505460597
-0.43999999999999995,-0.92,-0.26708956605744355
-0.42000000000000004,-0.92,-0.3312582550519819
-0.4,-0.92,-0.39020280348026115
-0.38,-0.92,-0.44299362060180053
-0.36,-0.92,-0.48879816369488777
-0.33999999999999997,-0.92,-0.5268940677526367
-0.31999999999999995,-0.92,-0.5566805376106669
-0.29999999999999993,-0.92,-0.5776878228457424
-0.28,-0.92,-0.5895846260205622
-0.26,-0.92,-0.5921833274422538
-0.24,-0.92,-0.585442944037009
-0.21999999999999997,-0.92,-0.569469775677638
-0.19999999999999996,-0.92,-0.5445157287710759
-0.17999999999999994,-0.92,-0.5109743435438644
-0.16000000000000003,-0.92,-0.46937458767768914
-0.14,-0.92,-0.4203725141730492
-0.12,-0.92,-0.3647409150015318
-0.09999999999999998,-0.92,-0.3033571337147792
-0.07999999999999996,-0.92,-0.23718922921257704
-0.05999999999999994,-0.92,-0.16728070887571517
-0.040000000000000036,-0.92,-0.09473407183123131
-0.020000000000000018,-0.92,-0.020693421882577532
0.0,-0.92,0.05367357569081572
0.020000000000000018,-0.92,0.12719410891252494
0.040000000000000036,-0.92,0.1987087150546059
0.06000000000000005,-0.92,0.2670895660574436
0.08000000000000007,-0.92,0.3312582550519821
0.10000000000000009,-0.92,0.39020280348026126
0.1200000000000001,-0.92,0.44299362060180064
0.14000000000000012,-0.92,0.48879816369488793
0.15999999999999992,-0.92,0.5268940677526368
0.17999999999999994,-0.92,0.5566805376106669
0.19999999999999996,-0.92,0.5776878228457423
0.21999999999999997,-0.92,0.589584626020562
0.24,-0.92,0.5921833274422541
0.26,-0.92,0.585442944037009
0.28,-0.92,0.5694697756776378
0.30000000000000004,-0.92,0.5445157287710758
0.32000000000000006,-0.92,0.5109743435438644
0.3400000000000001,-0.92,0.46937458767768925
0.3600000000000001,-0.92,0.42037251417304916
0.3800000000000001,-0.92,0.36474091500153166
0.40000000000000013,-0.92,0.3033571337147793
0.41999999999999993,-0.92,0.23718922921257699
0.43999999999999995,-0.92,0.16728070887571508
0.45999999999999996,-0.92,0.09473407183123139
0.48,-0.92,0.020693421882577515
0.5,-0.92,-0.05367357569081573
0.52,-0.92,-0.12719410891252492
0.54,-0.92,-0.19870871505460602
0.56,-0.92,-0.26708956605744355
0.5800000000000001,-0.92,-0.33125825505198203
0.6000000000000001,-0.92,-0.39020280348026115
0.6200000000000001,-0.92,-0.4429936206018004
0.6400000000000001,-0.92,-0.48879816369488754
0.6600000000000001,-0.92,-0.5268940677526366
0.6799999999999999,-0.92,-0.5566805376106668
0.7,-0.92,-0.5776878228457425
0.72,-0.92,-0.5895846260205623
0.74,-0.92,-0.5921833274422538
0.76,-0.92,-0.5854429440370089
0.78,-0.92,-0.5694697756776379
0.8,-0.92,-0.5445157287710757
0.8200000000000001,-0.92,-0.5109743435438646
0.8400000000000001,-0.92,-0.4693745876776894
0.8600000000000001,-0.92,-0.42037251417304916
0.8800000000000001,-0.92,-0.3647409150015316
0.9000000000000001,-0.92,-0.3033571337147791
0.9199999999999999,-0.92,-0.23718922921257704
0.94,-0.92,-0.1672807088757151
0.96,-0.92,-0.09473407183123131
0.98,-0.92,-0.02069342188257744
1.0,-0.92,0.053673575690815815

-1.0,-0.9,0.09850556660709678
-0.98,-0.9,0.17678681311363326
-0.96,-0.9,0.2522800259700444
-0.94,-0.9,0.32379463211212545
-0.92,-0.9,0.3902028034802611
-0.9,-0.9,0.4504572435416567
-0.88,-0.9,0.503607703782287
-0.86,-0.9,0.5488159696936098
-0.84,-0.9,0.5853690799160952
-0.8200000000000001,-0.9,0.6126905700657649
-0.8,-0.9,0.6303495639218919
-0.78,-0.9,0.6380675686023928
-0.76,-0.9,0.6357228665629445
-0.74,-0.9,0.6233524351553663
-0.72,-0.9,0.6011513634726928
-0.7,-0.9,0.5694697756776372
-0.6799999999999999,-0.9,0.5288073093353909
-0.6599999999999999,-0.9,0.4798052358307507
-0.64,-0.9,0.4232363471353044
-0.62,-0.9,0.359992768416396
-0.6,-0.9,0.29107188869030515
-0.5800000000000001,-0.9,0.21756063140165022
-0.56,-0.9,0.1406183129913696
-0.54,-0.9,0.06145835978390657
-0.52,-0.9,-0.018670828470793363
-0.5,-0.9,-0.09850556660709668
-0.48,-0.9,-0.1767868131136331
-0.45999999999999996,-0.9,-0.2522800259700445
-0.43999999999999995,-0.9,-0.3237946321121255
-0.42000000000000004,-0.9,-0.39020280348026115
-0.4,-0.9,-0.4504572435416569
-0.38,-0.9,-0.5036077037822868
-0.36,-0.9,-0.5488159696936097
-0.33999999999999997,-0.9,-0.5853690799160952
-0.31999999999999995,-0.9,-0.612690570065765
-0.29999999999999993,-0.9,-0.6303495639218919
-0.28,-0.9,-0.6380675686023927
-0.26,-0.9,-0.6357228665629445
-0.24,-0.9,-0.6233524351553663
-0.21999999999999997,-0.9,-0.601151363472693
-0.19999999999999996,-0.9,-0.5694697756776372
-0.17999999999999994,-0.9,-0.5288073093353909
-0.16000000000000003,-0.9,-0.4798052358307509
-0.14,-0.9,-0.42323634713530445
-0.12,-0.9,-0.3599927684163959
-0.09999999999999998,-0.9,-0.29107188869030504
-0.07999999999999996,-0.9,-0.2175606314016502
-0.05999999999999994,-0.9,-0.14061831299136957
-0.040000000000000036,-0.9,-0.06145835978390657
-0.020000000000000018,-0.9,0.01867082847079344
0.0,-0.9,0.0985055666070968
0.020000000000000018,-0.9,0.1767868131136331
0.040000000000000036,-0.9,0.2522800259700445
0.06000000000000005,-0.9,0.32379463211212567
0.08000000000000007,-0.9,0.39020280348026126
0.10000000000000009,-0.9,0.450457243541657
0.1200000000000001,-0.9,0.5036077037822869
0.14000000000000012,-0.9,0.5488159696936098
0.15999999999999992,-0.9,0.5853690799160953
0.17999999999999994,-0.9,0.6126905700657651
0.19999999999999996,-0.9,0.6303495639218917
0.21999999999999997,-0.9,0.6380675686023931
0.24,-0.9,0.6357228665629446
0.26,-0.9,0.6233524351553663
0.28,-0.9,0.6011513634726927
0.30000000000000004,-0.9,0.5694697756776372
0.32000000000000006,-0.9,0.528807309335391
0.3400000000000001,-0.9,0.47980523583075085
0.3600000000000001,-0.9,0.4232363471353043
0.3800000000000001,-0.9,0.359992768416396
0.40000000000000013,-0.9,0.291071888690305
0.41999999999999993,-0.9,0.2175606314016501
0.43999999999999995,-0.9,0.14061831299136968
0.45999999999999996,-0.9,0.06145835978390653
0.48,-0.9,-0.018670828470793443
0.5,-0.9,-0.09850556660709678
0.52,-0.9,-0.17678681311363317
0.54,-0.9,-0.25228002597004445
0.56,-0.9,-0.32379463211212556
0.5800000000000001,-0.9,-0.3902028034802611
0.6000000000000001,-0.9,-0.4504572435416568
0.6200000000000001,-0.9,-0.5036077037822866
0.6400000000000001,-0.9,-0.5488159696936096
0.6600000000000001,-0.9,-0.5853690799160951
0.6799999999999999,-0.9,-0.6126905700657652
0.7,-0.9,-0.6303495639218918
0.72,-0.9,-0.6380675686023929
0.74,-0.9,-0.6357228665629445
0.76,-0.9,-0.6233524351553663
0.78,-0.9,-0.6011513634726927
0.8,-0.9,-0.5694697756776375
0.8200000000000001,-0.9,-0.5288073093353912
0.8400000000000001,-0.9,-0.47980523583075096
0.8600000000000001,-0.9,-0.4232363471353042
0.8800000000000001,-0.9,-0.35999276841639577
0.9000000000000001,-0.9,-0.291071888690305
0.9199999999999999,-0.9,-0.21756063140165013
0.94,-0.9,-0.14061831299136954
0.96,-0.9,-0.06145835978390644
0.98,-0.9,0.018670828470793526
1.0,-0.9,0.09850556660709678

-1.0,-0.88,0.14178406589361087
-0.98,-0.88,0.22359148366461618
-0.96,-0.88,0.3018727301711525
-0.94,-0.88,0.3753932633928621
-0.92,-0.88,0.4429936206018003
-0.9,-0.88,0.5036077037822869
-0.88,-0.88,0.5562795926334662
-0.86,-0.88,0.6001786200034942
-0.84,-0.88,0.634612472006738
-0.8200000000000001,-0.88,0.6590381062273203
-0.8,-0.88,0.6730703158224157
-0.78,-0.88,0.6764878044642741
-0.76,-0.88,0.6692366763155049
-0.74,-0.88,0.651431285998628
-0.72,-0.88,0.6233524351553654
-0.7,-0.88,0.5854429440370077
-0.6799999999999999,-0.88,0.5383006679645232
-0.6599999999999999,-0.88,0.482669068793006
-0.64,-0.88,0.4194254900740975
-0.62,-0.88,0.34956732082407765
-0.6,-0.88,0.27419626610326686
-0.5800000000000001,-0.88,0.19450097246909762
-0.56,-0.88,0.11173828230984169
-0.54,-0.88,0.027213412689344952
-0.52,-0.88,-0.05774062870576757
-0.5,-0.88,-0.14178406589361073
-0.48,-0.88,-0.22359148366461623
-0.45999999999999996,-0.88,-0.30187273017115257
-0.43999999999999995,-0.88,-0.37539326339286216
-0.42000000000000004,-0.88,-0.4429936206018004
-0.4,-0.88,-0.5036077037822868
-0.38,-0.88,-0.5562795926334662
-0.36,-0.88,-0.6001786200034942
-0.33999999999999997,-0.88,-0.6346124720067379
-0.31999999999999995,-0.88,-0.6590381062273204
-0.29999999999999993,-0.88,-0.6730703158224156
-0.28,-0.88,-0.676487804464274
-0.26,-0.88,-0.6692366763155049
-0.24,-0.88,-0.6514312859986282
-0.21999999999999997,-0.88,-0.6233524351553654
-0.19999999999999996,-0.88,-0.5854429440370077
-0.17999999999999994,-0.88,-0.5383006679645235
-0.16000000000000003,-0.88,-0.48266906879300603
-0.14,-0.88,-0.41942549007409735
-0.12,-0.88,-0.3495673208240775
-0.09999999999999998,-0.88,-0.27419626610326686
-0.07999999999999996,-0.88,-0.1945009724690976
-0.05999999999999994,-0.88,-0.11173828230984173
-0.040000000000000036,-0.88,-0.02721341268934491
-0.020000000000000018,-0.88,0.057740628705767696
0.0,-0.88,0.14178406589361076
0.020000000000000018,-0.88,0.2235914836646163
0.040000000000000036,-0.88,0.30187273017115274
0.06000000000000005,-0.88,0.3753932633928623
0.08000000000000007,-0.88,0.44299362060180053
0.10000000000000009,-0.88,0.5036077037822867
0.1200000000000001,-0.88,0.5562795926334663
0.14000000000000012,-0.88,0.6001786200034944
0.15999999999999992,-0.88,0.6346124720067381
0.17999999999999994,-0.88,0.6590381062273202
0.19999999999999996,-0.88,0.6730703158224158
0.21999999999999997,-0.88,0.6764878044642741
0.24,-0.88,0.6692366763155049
0.26,-0.88,0.651431285998628
0.28,-0.88,0.6233524351553654
0.30000000000000004,-0.88,0.5854429440370077
0.32000000000000006,-0.88,0.5383006679645234
0.3400000000000001,-0.88,0.48266906879300575
0.3600000000000001,-0.88,0.41942549007409746
0.3800000000000001,-0.88,0.34956732082407754
0.40000000000000013,-0.88,0.2741962661032668
0.41999999999999993,-0.88,0.19450097246909775
0.43999999999999995,-0.88,0.11173828230984167
0.45999999999999996,-0.88,0.02721341268934491
0.48,-0.88,-0.05774062870576768
0.5,-0.88,-0.14178406589361076
0.52,-0.88,-0.22359148366461618
0.54,-0.88,-0.3018727301711526
0.56,-0.88,-0.3753932633928621
0.5800000000000001,-0.88,-0.44299362060180036
0.6000000000000001,-0.88,-0.5036077037822866
0.6200000000000001,-0.88,-0.556279592633466
0.6400000000000001,-0.88,-0.6001786200034941
0.6600000000000001,-0.88,-0.6346124720067381
0.6799999999999999,-0.88,-0.6590381062273203
0.7,-0.88,-0.6730703158224158
0.72,-0.88,-0.6764878044642739
0.74,-0.88,-0.6692366763155049
0.76,-0.88,-0.651431285998628
0.78,-0.88,-0.6233524351553655
0.8,-0.88,-0.5854429440370079
0.8200000000000001,-0.88,-0.5383006679645236
0.8400000000000001,-0.88,-0.48266906879300575
0.8600000000000001,-0.88,-0.4194254900740973
0.8800000000000001,-0.88,-0.34956732082407754
0.9000000000000001,-0.88,-0.2741962661032668
0.9199999999999999,-0.88,-0.19450097246909762
0.94,-0.88,-0.11173828230984156
0.96,-0.88,-0.02721341268934481
0.98,-0.88,0.057740628705767696
1.0,-0.88,0.14178406589361087

-1.0,-0.86,0.18282654576328694
-0.98,-0.86,0.2668699829511301
-0.96,-0.86,0.3467047210874339
-0.94,-0.86,0.4210717186608274
-0.92,-0.86,0.4887981636948877
-0.9,-0.86,0.5488159696936097
-0.88,-0.86,0.6001786200034941
-0.86,-0.86,0.6420760949465945
-0.84,-0.86,0.6738476463147195
-0.8200000000000001,-0.86,0.6949922177633889
-0.8,-0.86,0.7051763467697029
-0.78,-0.86,0.7042394235355274
-0.76,-0.86,0.692196223899957
-0.74,-0.86,0.6692366763155037
-0.72,-0.86,0.6357228665629424
-0.7,-0.86,0.5921833274422509
-0.6799999999999999,-0.86,0.5393047034946225
-0.6599999999999999,-0.86,0.47792092220786997
-0.64,-0.86,0.40900004248177907
-0.62,-0.86,0.3336289877609684
-0.6,-0.86,0.2529964046028702
-0.5800000000000001,-0.86,0.16837391701145848
-0.56,-0.86,0.08109607216707311
-0.54,-0.86,-0.0074607061798323444
-0.52,-0.86,-0.09589982473347226
-0.5,-0.86,-0.182826545763287
-0.48,-0.86,-0.26686998295113007
-0.45999999999999996,-0.86,-0.3467047210874339
-0.43999999999999995,-0.86,-0.42107171866082743
-0.42000000000000004,-0.86,-0.4887981636948876
-0.4,-0.86,-0.5488159696936097
-0.38,-0.86,-0.6001786200034942
-0.36,-0.86,-0.6420760949465943
-0.33999999999999997,-0.86,-0.6738476463147194
-0.31999999999999995,-0.86,-0.6949922177633887
-0.29999999999999993,-0.86,-0.7051763467697028
-0.28,-0.86,-0.7042394235355274
-0.26,-0.86,-0.692196223899957
-0.24,-0.86,-0.6692366763155037
-0.21999999999999997,-0.86,-0.6357228665629425
-0.19999999999999996,-0.86,-0.592183327442251
-0.17999999999999994,-0.86,-0.5393047034946225
-0.16000000000000003,-0.86,-0.4779209222078698
-0.14,-0.86,-0.40900004248177896
-0.12,-0.86,-0.3336289877609684
-0.09999999999999998,-0.86,-0.25299640460287026
-0.07999999999999996,-0.86,-0.16837391701145854
-0.05999999999999994,-0.86,-0.08109607216707312
-0.040000000000000036,-0.86,0.0074607061798324555
-0.020000000000000018,-0.86,0.09589982473347229
0.0,-0.86,0.18282654576328708
0.020000000000000018,-0.86,0.26686998295113024
0.040000000000000036,-0.86,0.34670472108743405
0.06000000000000005,-0.86,0.4210717186608275
0.08000000000000007,-0.86,0.4887981636948875
0.10000000000000009,-0.86,0.5488159696936099
0.1200000000000001,-0.86,0.6001786200034943
0.14000000000000012,-0.86,0.6420760949465947
0.15999999999999992,-0.86,0.6738476463147194
0.17999999999999994,-0.86,0.694992217763389
0.19999999999999996,-0.86,0.7051763467697028
0.21999999999999997,-0.86,0.7042394235355275
0.24,-0.86,0.6921962238999569
0.26,-0.86,0.6692366763155037
0.28,-0.86,0.6357228665629426
0.30000000000000004,-0.86,0.5921833274422509
0.32000000000000006,-0.86,0.5393047034946222
0.3400000000000001,-0.86,0.47792092220786997