TITLE = "Solution" 
VARIABLES = "x", "y", "sol" 
ZONE STRANDID=1, SOLUTIONTIME= 0.2800000000000001, I= 101, J =101, DATAPACKING=POINT 
-1.0,-1.0,0.8654807187899303
-0.98,-1.0,0.8817252650869032
-0.96,-1.0,0.8840644772363127
-0.94,-1.0,0.8724614644651855
-0.92,-1.0,0.8470992132162264
-0.9,-1.0,0.808377701342306
-0.88,-1.0,0.7569075902167857
-0.86,-1.0,0.6935005942388693
-0.84,-1.0,0.6191566796126313
-0.8200000000000001,-1.0,0.5350482942826301
-0.8,-1.0,0.44250187772943345
-0.78,-1.0,0.3429769422266347
-0.76,-1.0,0.23804305546042784
-0.74,-1.0,0.12935508750958133
-0.72,-1.0,0.01862711255572496
-0.7,-1.0,-0.0923946230904329
-0.6799999999999999,-1.0,-0.2019592403365823
-0.6599999999999999,-1.0,-0.3083388397180214
-0.64,-1.0,-0.4098557514044127
-0.62,-1.0,-0.5049089930551981
-0.6,-1.0,-0.5919995182674905
-0.5800000000000001,-1.0,-0.6697538574333343
-0.56,-1.0,-0.7369457781758929
-0.54,-1.0,-0.7925156237665484
-0.52,-1.0,-0.8355870245445198
-0.5,-1.0,-0.8654807187899305
-0.48,-1.0,-0.8817252650869032
-0.45999999999999996,-1.0,-0.8840644772363127
-0.43999999999999995,-1.0,-0.8724614644651854
-0.42000000000000004,-1.0,-0.8470992132162265
-0.4,-1.0,-0.8083777013423062
-0.38,-1.0,-0.7569075902167858
-0.36,-1.0,-0.6935005942388692
-0.33999999999999997,-1.0,-0.6191566796126314
-0.31999999999999995,-1.0,-0.53504829428263
-0.29999999999999993,-1.0,-0.4425018777294332
-0.28,-1.0,-0.34297694222663466
-0.26,-1.0,-0.23804305546042767
-0.24,-1.0,-0.12935508750958125
-0.21999999999999997,-1.0,-0.01862711255572489
-0.19999999999999996,-1.0,0.09239462309043295
-0.17999999999999994,-1.0,0.20195924033658222
-0.16000000000000003,-1.0,0.3083388397180213
-0.14,-1.0,0.4098557514044125
-0.12,-1.0,0.5049089930551981
-0.09999999999999998,-1.0,0.5919995182674908
-0.07999999999999996,-1.0,0.6697538574333342
-0.05999999999999994,-1.0,0.7369457781758929
-0.040000000000000036,-1.0,0.7925156237665484
-0.020000000000000018,-1.0,0.8355870245445198
0.0,-1.0,0.8654807187899306
0.020000000000000018,-1.0,0.8817252650869033
0.040000000000000036,-1.0,0.8840644772363125
0.06000000000000005,-1.0,0.8724614644651854
0.08000000000000007,-1.0,0.8470992132162264
0.10000000000000009,-1.0,0.8083777013423061
0.1200000000000001,-1.0,0.7569075902167856
0.14000000000000012,-1.0,0.693500594238869
0.15999999999999992,-1.0,0.6191566796126313
0.17999999999999994,-1.0,0.53504829428263
0.19999999999999996,-1.0,0.44250187772943306
0.21999999999999997,-1.0,0.3429769422266345
0.24,-1.0,0.2380430554604276
0.26,-1.0,0.1293550875095812
0.28,-1.0,0.01862711255572489
0.30000000000000004,-1.0,-0.09239462309043295
0.32000000000000006,-1.0,-0.2019592403365822
0.3400000000000001,-1.0,-0.30833883971802134
0.3600000000000001,-1.0,-0.40985575140441266
0.3800000000000001,-1.0,-0.5049089930551981
0.40000000000000013,-1.0,-0.5919995182674908
0.41999999999999993,-1.0,-0.6697538574333342
0.43999999999999995,-1.0,-0.7369457781758927
0.45999999999999996,-1.0,-0.7925156237665482
0.48,-1.0,-0.8355870245445196
0.5,-1.0,-0.8654807187899305
0.52,-1.0,-0.8817252650869033
0.54,-1.0,-0.8840644772363128
0.56,-1.0,-0.8724614644651854
0.5800000000000001,-1.0,-0.8470992132162265
0.6000000000000001,-1.0,-0.808377701342306
0.6200000000000001,-1.0,-0.7569075902167857
0.6400000000000001,-1.0,-0.6935005942388691
0.6600000000000001,-1.0,-0.6191566796126312
0.6799999999999999,-1.0,-0.53504829428263
0.7,-1.0,-0.44250187772943333
0.72,-1.0,-0.34297694222663466
0.74,-1.0,-0.2380430554604278
0.76,-1.0,-0.12935508750958138
0.78,-1.0,-0.018627112555725037
0.8,-1.0,0.09239462309043282
0.8200000000000001,-1.0,0.20195924033658205
0.8400000000000001,-1.0,0.3083388397180213
0.8600000000000001,-1.0,0.40985575140441255
0.8800000000000001,-1.0,0.504908993055198
0.9000000000000001,-1.0,0.5919995182674906
0.9199999999999999,-1.0,0.6697538574333343
0.94,-1.0,0.7369457781758928
0.96,-1.0,0.7925156237665484
0.98,-1.0,0.8355870245445199
1.0,-1.0,0.8654807187899303

-1.0,-0.98,0.8817252650869033
-0.98,-0.98,0.8966498265030433
-0.96,-0.98,0.8974336845225865
-0.94,-0.98,0.8840644772363118
-0.92,-0.98,0.8567530450295006
-0.9,-0.98,0.8159301055031126
-0.88,-0.98,0.762239460799922
-0.86,-0.98,0.6965278444601333
-0.84,-0.98,0.6198315679276427
-0.8200000000000001,-0.98,0.5333601772995021
-0.8,-0.98,0.4384773780614224
-0.78,-0.98,0.3366795286376248
-0.76,-0.98,0.22957204192461014
-0.74,-0.98,0.11884406697075381
-0.72,-0.98,0.006241850086764264
-0.7,-0.98,-0.1064588045017942
-0.6799999999999999,-0.98,-0.21748054014795215
-0.6599999999999999,-0.98,-0.32507247775939957
-0.64,-0.98,-0.4275378282076956
-0.62,-0.98,-0.5232606517064373
-0.6,-0.98,-0.6107313421470066
-0.5800000000000001,-0.98,-0.6885704344886979
-0.56,-0.98,-0.7555503597464628
-0.54,-0.98,-0.8106148044871185
-0.52,-0.98,-0.8528953695232
-0.5,-0.98,-0.8817252650869032
-0.48,-0.98,-0.8966498265030431
-0.45999999999999996,-0.98,-0.8974336845225863
-0.43999999999999995,-0.98,-0.8840644772363118
-0.42000000000000004,-0.98,-0.8567530450295007
-0.4,-0.98,-0.8159301055031128
-0.38,-0.98,-0.762239460799922
-0.36,-0.98,-0.6965278444601334
-0.33999999999999997,-0.98,-0.6198315679276427
-0.31999999999999995,-0.98,-0.5333601772995021
-0.29999999999999993,-0.98,-0.43847737806142245
-0.28,-0.98,-0.3366795286376246
-0.26,-0.98,-0.22957204192460998
-0.24,-0.98,-0.1188440669707537
-0.21999999999999997,-0.98,-0.006241850086764188
-0.19999999999999996,-0.98,0.10645880450179418
-0.17999999999999994,-0.98,0.21748054014795204
-0.16000000000000003,-0.98,0.3250724777593994
-0.14,-0.98,0.42753782820769554
-0.12,-0.98,0.5232606517064373
-0.09999999999999998,-0.98,0.6107313421470066
-0.07999999999999996,-0.98,0.6885704344886979
-0.05999999999999994,-0.98,0.7555503597464627
-0.040000000000000036,-0.98,0.8106148044871185
-0.020000000000000018,-0.98,0.8528953695232001
0.0,-0.98,0.8817252650869033
0.020000000000000018,-0.98,0.896649826503043
0.040000000000000036,-0.98,0.8974336845225863
0.06000000000000005,-0.98,0.8840644772363117
0.08000000000000007,-0.98,0.8567530450295006
0.10000000000000009,-0.98,0.8159301055031126
0.1200000000000001,-0.98,0.7622394607999218
0.14000000000000012,-0.98,0.6965278444601333
0.15999999999999992,-0.98,0.6198315679276427
0.17999999999999994,-0.98,0.5333601772995019
0.19999999999999996,-0.98,0.4384773780614223
0.21999999999999997,-0.98,0.33667952863762446
0.24,-0.98,0.2295720419246099
0.26,-0.98,0.11884406697075363
0.28,-0.98,0.006241850086764164
0.30000000000000004,-0.98,-0.10645880450179418
0.32000000000000006,-0.98,-0.2174805401479521
0.3400000000000001,-0.98,-0.3250724777593995
0.3600000000000001,-0.98,-0.42753782820769554
0.3800000000000001,-0.98,-0.5232606517064374
0.40000000000000013,-0.98,-0.6107313421470068
0.41999999999999993,-0.98,-0.6885704344886978
0.43999999999999995,-0.98,-0.7555503597464626
0.45999999999999996,-0.98,-0.8106148044871183
0.48,-0.98,-0.8528953695232
0.5,-0.98,-0.8817252650869032
0.52,-0.98,-0.8966498265030433
0.54,-0.98,-0.8974336845225864
0.56,-0.98,-0.8840644772363119
0.5800000000000001,-0.98,-0.8567530450295006
0.6000000000000001,-0.98,-0.8159301055031128
0.6200000000000001,-0.98,-0.7622394607999217
0.6400000000000001,-0.98,-0.6965278444601332
0.6600000000000001,-0.98,-0.6198315679276426
0.6799999999999999,-0.98,-0.5333601772995021
0.7,-0.98,-0.43847737806142234
0.72,-0.98,-0.3366795286376247
0.74,-0.98,-0.2295720419246101
0.76,-0.98,-0.11884406697075384
0.78,-0.98,-0.006241850086764323
0.8,-0.98,0.10645880450179401
0.8200000000000001,-0.98,0.21748054014795198
0.8400000000000001,-0.98,0.3250724777593993
0.8600000000000001,-0.98,0.42753782820769537
0.8800000000000001,-0.98,0.5232606517064373
0.9000000000000001,-0.98,0.6107313421470066
0.9199999999999999,-0.98,0.6885704344886978
0.94,-0.98,0.7555503597464628
0.96,-0.98,0.8106148044871185
0.98,-0.98,0.8528953695231998
1.0,-0.98,0.8817252650869033

-1.0,-0.96,0.8840644772363129
-0.98,-0.96,0.8974336845225865
-0.96,-0.96,0.8966498265030419
-0.94,-0.96,0.8817252650869014
-0.92,-0.96,0.8528953695231979
-0.9,-0.96,0.8106148044871164
-0.88,-0.96,0.7555503597464603
-0.86,-0.96,0.6885704344886955
-0.84,-0.96,0.6107313421470041
-0.8200000000000001,-0.96,0.5232606517064352
-0.8,-0.96,0.42753782820769376
-0.78,-0.96,0.32507247775939796
-0.76,-0.96,0.21748054014795085
-0.74,-0.96,0.10645880450179311
-0.72,-0.96,-0.006241850086765294
-0.7,-0.96,-0.11884406697075495
-0.6799999999999999,-0.96,-0.22957204192461142
-0.6599999999999999,-0.96,-0.33667952863762635
-0.64,-0.96,-0.4384773780614241
-0.62,-0.96,-0.5333601772995039
-0.6,-0.96,-0.6198315679276445
-0.5800000000000001,-0.96,-0.696527844460135
-0.56,-0.96,-0.7622394607999234
-0.54,-0.96,-0.8159301055031142
-0.52,-0.96,-0.8567530450295018
-0.5,-0.96,-0.8840644772363127
-0.48,-0.96,-0.8974336845225864
-0.45999999999999996,-0.96,-0.8966498265030418
-0.43999999999999995,-0.96,-0.8817252650869013
-0.42000000000000004,-0.96,-0.852895369523198
-0.4,-0.96,-0.8106148044871164
-0.38,-0.96,-0.7555503597464603
-0.36,-0.96,-0.6885704344886955
-0.33999999999999997,-0.96,-0.6107313421470042
-0.31999999999999995,-0.96,-0.5232606517064352
-0.29999999999999993,-0.96,-0.4275378282076937
-0.28,-0.96,-0.32507247775939785
-0.26,-0.96,-0.2174805401479507
-0.24,-0.96,-0.10645880450179303
-0.21999999999999997,-0.96,0.006241850086765346
-0.19999999999999996,-0.96,0.11884406697075492
-0.17999999999999994,-0.96,0.2295720419246113
-0.16000000000000003,-0.96,0.3366795286376262
-0.14,-0.96,0.43847737806142406
-0.12,-0.96,0.533360177299504
-0.09999999999999998,-0.96,0.6198315679276447
-0.07999999999999996,-0.96,0.696527844460135
-0.05999999999999994,-0.96,0.7622394607999234
-0.040000000000000036,-0.96,0.8159301055031143
-0.020000000000000018,-0.96,0.8567530450295018
0.0,-0.96,0.8840644772363125
0.020000000000000018,-0.96,0.8974336845225863
0.040000000000000036,-0.96,0.8966498265030417
0.06000000000000005,-0.96,0.8817252650869014
0.08000000000000007,-0.96,0.8528953695231978
0.10000000000000009,-0.96,0.8106148044871162
0.1200000000000001,-0.96,0.7555503597464603
0.14000000000000012,-0.96,0.6885704344886954
0.15999999999999992,-0.96,0.610731342147004
0.17999999999999994,-0.96,0.5232606517064351
0.19999999999999996,-0.96,0.4275378282076934
0.21999999999999997,-0.96,0.32507247775939774
0.24,-0.96,0.2174805401479506
0.26,-0.96,0.10645880450179293
0.28,-0.96,-0.00624185008676536
0.30000000000000004,-0.96,-0.11884406697075495
0.32000000000000006,-0.96,-0.22957204192461136
0.3400000000000001,-0.96,-0.33667952863762624
0.3600000000000001,-0.96,-0.4384773780614241
0.3800000000000001,-0.96,-0.5333601772995041
0.40000000000000013,-0.96,-0.6198315679276445
0.41999999999999993,-0.96,-0.696527844460135
0.43999999999999995,-0.96,-0.7622394607999233
0.45999999999999996,-0.96,-0.8159301055031142
0.48,-0.96,-0.8567530450295018
0.5,-0.96,-0.8840644772363127
0.52,-0.96,-0.8974336845225864
0.54,-0.96,-0.896649826503042
0.56,-0.96,-0.8817252650869015
0.5800000000000001,-0.96,-0.852895369523198
0.6000000000000001,-0.96,-0.8106148044871162
0.6200000000000001,-0.96,-0.7555503597464602
0.6400000000000001,-0.96,-0.6885704344886953
0.6600000000000001,-0.96,-0.6107313421470042
0.6799999999999999,-0.96,-0.5232606517064351
0.7,-0.96,-0.42753782820769354
0.72,-0.96,-0.32507247775939785
0.74,-0.96,-0.2174805401479508
0.76,-0.96,-0.10645880450179311
0.78,-0.96,0.006241850086765162
0.8,-0.96,0.11884406697075477
0.8200000000000001,-0.96,0.22957204192461123
0.8400000000000001,-0.96,0.33667952863762607
0.8600000000000001,-0.96,0.438477378061424
0.8800000000000001,-0.96,0.5333601772995039
0.9000000000000001,-0.96,0.6198315679276446
0.9199999999999999,-0.96,0.6965278444601352
0.94,-0.96,0.7622394607999233
0.96,-0.96,0.815930105503114
0.98,-0.96,0.8567530450295019
1.0,-0.96,0.8840644772363129

-1.0,-0.94,0.8724614644651856
-0.98,-0.94,0.8840644772363118
-0.96,-0.94,0.8817252650869013
-0.94,-0.94,0.8654807187899282
-0.92,-0.94,0.8355870245445173
-0.9,-0.94,0.7925156237665457
-0.88,-0.94,0.7369457781758899
-0.86,-0.94,0.6697538574333313
-0.84,-0.94,0.5919995182674879
-0.8200000000000001,-0.94,0.5049089930551959
-0.8,-0.94,0.4098557514044108
-0.78,-0.94,0.3083388397180199
-0.76,-0.94,0.20195924033658103
-0.74,-0.94,0.09239462309043184
-0.72,-0.94,-0.01862711255572603
-0.7,-0.94,-0.12935508750958247
-0.6799999999999999,-0.94,-0.2380430554604291
-0.6599999999999999,-0.94,-0.34297694222663594
-0.64,-0.94,-0.4425018777294345
-0.62,-0.94,-0.5350482942826311
-0.6,-0.94,-0.6191566796126323
-0.5800000000000001,-0.94,-0.6935005942388702
-0.56,-0.94,-0.7569075902167864
-0.54,-0.94,-0.8083777013423068
-0.52,-0.94,-0.8470992132162272
-0.5,-0.94,-0.8724614644651855
-0.48,-0.94,-0.8840644772363118
-0.45999999999999996,-0.94,-0.8817252650869013
-0.43999999999999995,-0.94,-0.8654807187899283
-0.42000000000000004,-0.94,-0.8355870245445175
-0.4,-0.94,-0.7925156237665457
-0.38,-0.94,-0.73694577817589
-0.36,-0.94,-0.6697538574333314
-0.33999999999999997,-0.94,-0.5919995182674881
-0.31999999999999995,-0.94,-0.5049089930551959
-0.29999999999999993,-0.94,-0.4098557514044107
-0.28,-0.94,-0.30833883971801973
-0.26,-0.94,-0.20195924033658097
-0.24,-0.94,-0.09239462309043174
-0.21999999999999997,-0.94,0.018627112555726064
-0.19999999999999996,-0.94,0.1293550875095824
-0.17999999999999994,-0.94,0.23804305546042898
-0.16000000000000003,-0.94,0.3429769422266359
-0.14,-0.94,0.4425018777294345
-0.12,-0.94,0.5350482942826312
-0.09999999999999998,-0.94,0.6191566796126323
-0.07999999999999996,-0.94,0.69350059423887
-0.05999999999999994,-0.94,0.7569075902167866
-0.040000000000000036,-0.94,0.8083777013423068
-0.020000000000000018,-0.94,0.8470992132162269
0.0,-0.94,0.8724614644651854
0.020000000000000018,-0.94,0.8840644772363117
0.040000000000000036,-0.94,0.8817252650869014
0.06000000000000005,-0.94,0.8654807187899282
0.08000000000000007,-0.94,0.8355870245445173
0.10000000000000009,-0.94,0.7925156237665456
0.1200000000000001,-0.94,0.7369457781758899
0.14000000000000012,-0.94,0.6697538574333312
0.15999999999999992,-0.94,0.5919995182674879
0.17999999999999994,-0.94,0.5049089930551957
0.19999999999999996,-0.94,0.4098557514044106
0.21999999999999997,-0.94,0.3083388397180197
0.24,-0.94,0.2019592403365808
0.26,-0.94,0.09239462309043167
0.28,-0.94,-0.018627112555726105
0.30000000000000004,-0.94,-0.12935508750958247
0.32000000000000006,-0.94,-0.23804305546042903
0.3400000000000001,-0.94,-0.342976942226636
0.3600000000000001,-0.94,-0.4425018777294346
0.3800000000000001,-0.94,-0.5350482942826311
0.40000000000000013,-0.94,-0.6191566796126324
0.41999999999999993,-0.94,-0.6935005942388702
0.43999999999999995,-0.94,-0.7569075902167866
0.45999999999999996,-0.94,-0.8083777013423068
0.48,-0.94,-0.8470992132162268
0.5,-0.94,-0.8724614644651854
0.52,-0.94,-0.8840644772363118
0.54,-0.94,-0.8817252650869015
0.56,-0.94,-0.8654807187899283
0.5800000000000001,-0.94,-0.8355870245445173
0.6000000000000001,-0.94,-0.7925156237665456
0.6200000000000001,-0.94,-0.7369457781758899
0.6400000000000001,-0.94,-0.6697538574333314
0.6600000000000001,-0.94,-0.5919995182674878
0.6799999999999999,-0.94,-0.5049089930551957
0.7,-0.94,-0.4098557514044106
0.72,-0.94,-0.3083388397180198
0.74,-0.94,-0.20195924033658094
0.76,-0.94,-0.0923946230904319
0.78,-0.94,0.018627112555725918
0.8,-0.94,0.12935508750958233
0.8200000000000001,-0.94,0.23804305546042878
0.8400000000000001,-0.94,0.34297694222663583
0.8600000000000001,-0.94,0.4425018777294344
0.8800000000000001,-0.94,0.5350482942826311
0.9000000000000001,-0.94,0.6191566796126324
0.9199999999999999,-0.94,0.69350059423887
0.94,-0.94,0.7569075902167864
0.96,-0.94,0.8083777013423068
0.98,-0.94,0.8470992132162272
1.0,-0.94,0.8724614644651856

-1.0,-0.92,0.8470992132162265
-0.98,-0.92,0.8567530450295006
-0.96,-0.92,0.852895369523198
-0.94,-0.92,0.8355870245445173
-0.92,-0.92,0.8051009730332761
-0.9,-0.92,0.761917998233291
-0.88,-0.92,0.7067191214534165
-0.86,-0.92,0.6403748619546823
-0.84,-0.92,0.563931508341523
-0.8200000000000001,-0.92,0.47859461796546365
-0.8,-0.92,0.3857100045655222
-0.78,-0.92,0.286742513981594
-0.76,-0.92,0.18325292266050097
-0.74,-0.92,0.076873323279062
-0.72,-0.92,-0.03071861433238525
-0.7,-0.92,-0.13782610104540013
-0.6799999999999999,-0.92,-0.242759987811607
-0.6599999999999999,-0.92,-0.34386540455223735
-0.64,-0.92,-0.43954785844784305
-0.62,-0.92,-0.528298380042563
-0.6,-0.92,-0.608717320593857
-0.5800000000000001,-0.92,-0.6795364253692839
-0.56,-0.92,-0.7396388347812536
-0.54,-0.92,-0.7880766979298996
-0.52,-0.92,-0.8240861207779908
-0.5,-0.92,-0.8470992132162265
-0.48,-0.92,-0.8567530450295004
-0.45999999999999996,-0.92,-0.8528953695231981
-0.43999999999999995,-0.92,-0.8355870245445174
-0.42000000000000004,-0.92,-0.805100973033276
-0.4,-0.92,-0.7619179982332911
-0.38,-0.92,-0.7067191214534168
-0.36,-0.92,-0.6403748619546825
-0.33999999999999997,-0.92,-0.5639315083415231
-0.31999999999999995,-0.92,-0.47859461796546365
-0.29999999999999993,-0.92,-0.38571000456552207
-0.28,-0.92,-0.28674251398159395
-0.26,-0.92,-0.18325292266050086
-0.24,-0.92,-0.07687332327906193
-0.21999999999999997,-0.92,0.030718614332385284
-0.19999999999999996,-0.92,0.1378261010454001
-0.17999999999999994,-0.92,0.24275998781160696
-0.16000000000000003,-0.92,0.3438654045522373
-0.14,-0.92,0.4395478584478431
-0.12,-0.92,0.528298380042563
-0.09999999999999998,-0.92,0.6087173205938569
-0.07999999999999996,-0.92,0.679536425369284
-0.05999999999999994,-0.92,0.7396388347812536
-0.040000000000000036,-0.92,0.7880766979298995
-0.020000000000000018,-0.92,0.8240861207779908
0.0,-0.92,0.8470992132162264
0.020000000000000018,-0.92,0.8567530450295006
0.040000000000000036,-0.92,0.852895369523198
0.06000000000000005,-0.92,0.8355870245445172
0.08000000000000007,-0.92,0.8051009730332759
0.10000000000000009,-0.92,0.7619179982332909
0.1200000000000001,-0.92,0.7067191214534166
0.14000000000000012,-0.92,0.6403748619546824
0.15999999999999992,-0.92,0.5639315083415228
0.17999999999999994,-0.92,0.47859461796546343
0.19999999999999996,-0.92,0.38571000456552196
0.21999999999999997,-0.92,0.2867425139815938
0.24,-0.92,0.18325292266050075
0.26,-0.92,0.07687332327906185
0.28,-0.92,-0.030718614332385312
0.30000000000000004,-0.92,-0.1378261010454001
0.32000000000000006,-0.92,-0.242759987811607
0.3400000000000001,-0.92,-0.3438654045522373
0.3600000000000001,-0.92,-0.43954785844784305
0.3800000000000001,-0.92,-0.528298380042563
0.40000000000000013,-0.92,-0.6087173205938571
0.41999999999999993,-0.92,-0.6795364253692842
0.43999999999999995,-0.92,-0.7396388347812537
0.45999999999999996,-0.92,-0.7880766979298993
0.48,-0.92,-0.8240861207779907
0.5,-0.92,-0.8470992132162264
0.52,-0.92,-0.8567530450295007
0.54,-0.92,-0.8528953695231979
0.56,-0.92,-0.8355870245445173
0.5800000000000001,-0.92,-0.8051009730332759
0.6000000000000001,-0.92,-0.761917998233291
0.6200000000000001,-0.92,-0.7067191214534168
0.6400000000000001,-0.92,-0.6403748619546825
0.6600000000000001,-0.92,-0.5639315083415227
0.6799999999999999,-0.92,-0.47859461796546343
0.7,-0.92,-0.38571000456552196
0.72,-0.92,-0.28674251398159384
0.74,-0.92,-0.18325292266050097
0.76,-0.92,-0.07687332327906206
0.78,-0.92,0.03071861433238516
0.8,-0.92,0.13782610104539988
0.8200000000000001,-0.92,0.24275998781160685
0.8400000000000001,-0.92,0.34386540455223713
0.8600000000000001,-0.92,0.439547858447843
0.8800000000000001,-0.92,0.528298380042563
0.9000000000000001,-0.92,0.6087173205938567
0.9199999999999999,-0.92,0.679536425369284
0.94,-0.92,0.7396388347812536
0.96,-0.92,0.7880766979298998
0.98,-0.92,0.8240861207779908
1.0,-0.92,0.8470992132162265

-1.0,-0.9,0.808377701342306
-0.98,-0.9,0.8159301055031128
-0.96,-0.9,0.8106148044871163
-0.94,-0.9,0.7925156237665458
-0.92,-0.9,0.761917998233291
-0.9,-0.9,0.7193044707201469
-0.88,-0.9,0.6653470820120834
-0.86,-0.9,0.6008967723616082
-0.84,-0.9,0.5269699616526582
-0.8200000000000001,-0.9,0.4447325198518494
-0.8,-0.9,0.35548138054264694
-0.78,-0.9,0.26062408750800325
-0.76,-0.9,0.16165659692407508
-0.74,-0.9,0.060139685237683996
-0.72,-0.9,-0.042325665210612026
-0.7,-0.9,-0.1441235146344098
-0.6799999999999999,-0.9,-0.24364845013720848
-0.6599999999999999,-0.9,-0.3393309040328142
-0.64,-0.9,-0.42966190686536593
-0.62,-0.9,-0.5132168847590689
-0.6,-0.9,-0.5886781257992149
-0.5800000000000001,-0.9,-0.6548555611362404
-0.56,-0.9,-0.7107055330823971
-0.54,-0.9,-0.7553472542169379
-0.52,-0.9,-0.7880766979298992
-0.5,-0.9,-0.808377701342306
-0.48,-0.9,-0.815930105503113
-0.45999999999999996,-0.9,-0.8106148044871163
-0.43999999999999995,-0.9,-0.7925156237665456
-0.42000000000000004,-0.9,-0.761917998233291
-0.4,-0.9,-0.7193044707201471
-0.38,-0.9,-0.6653470820120835
-0.36,-0.9,-0.6008967723616083
-0.33999999999999997,-0.9,-0.5269699616526583
-0.31999999999999995,-0.9,-0.4447325198518494
-0.29999999999999993,-0.9,-0.35548138054264694
-0.28,-0.9,-0.2606240875080032
-0.26,-0.9,-0.16165659692407497
-0.24,-0.9,-0.060139685237683885
-0.21999999999999997,-0.9,0.04232566521061207
-0.19999999999999996,-0.9,0.14412351463440984
-0.17999999999999994,-0.9,0.24364845013720843
-0.16000000000000003,-0.9,0.3393309040328142
-0.14,-0.9,0.4296619068653659
-0.12,-0.9,0.5132168847590688
-0.09999999999999998,-0.9,0.5886781257992149
-0.07999999999999996,-0.9,0.6548555611362403
-0.05999999999999994,-0.9,0.710705533082397
-0.040000000000000036,-0.9,0.7553472542169378
-0.020000000000000018,-0.9,0.7880766979298992
0.0,-0.9,0.8083777013423061
0.020000000000000018,-0.9,0.8159301055031128
0.040000000000000036,-0.9,0.8106148044871163
0.06000000000000005,-0.9,0.7925156237665456
0.08000000000000007,-0.9,0.7619179982332909
0.10000000000000009,-0.9,0.7193044707201469
0.1200000000000001,-0.9,0.6653470820120834
0.14000000000000012,-0.9,0.6008967723616081
0.15999999999999992,-0.9,0.5269699616526581
0.17999999999999994,-0.9,0.44473251985184925
0.19999999999999996,-0.9,0.35548138054264666
0.21999999999999997,-0.9,0.26062408750800303
0.24,-0.9,0.16165659692407489
0.26,-0.9,0.06013968523768387
0.28,-0.9,-0.04232566521061206
0.30000000000000004,-0.9,-0.1441235146344098
0.32000000000000006,-0.9,-0.24364845013720846
0.3400000000000001,-0.9,-0.3393309040328142
0.3600000000000001,-0.9,-0.4296619068653659
0.3800000000000001,-0.9,-0.513216884759069
0.40000000000000013,-0.9,-0.5886781257992149
0.41999999999999993,-0.9,-0.6548555611362405
0.43999999999999995,-0.9,-0.7107055330823969
0.45999999999999996,-0.9,-0.7553472542169377
0.48,-0.9,-0.7880766979298991
0.5,-0.9,-0.8083777013423061
0.52,-0.9,-0.8159301055031127
0.54,-0.9,-0.8106148044871164
0.56,-0.9,-0.7925156237665457
0.5800000000000001,-0.9,-0.7619179982332909
0.6000000000000001,-0.9,-0.7193044707201469
0.6200000000000001,-0.9,-0.6653470820120836
0.6400000000000001,-0.9,-0.600896772361608
0.6600000000000001,-0.9,-0.526969961652658
0.6799999999999999,-0.9,-0.44473251985184925
0.7,-0.9,-0.3554813805426468
0.72,-0.9,-0.26062408750800325
0.74,-0.9,-0.16165659692407508
0.76,-0.9,-0.060139685237684024
0.78,-0.9,0.042325665210611874
0.8,-0.9,0.1441235146344097
0.8200000000000001,-0.9,0.24364845013720832
0.8400000000000001,-0.9,0.3393309040328141
0.8600000000000001,-0.9,0.4296619068653658
0.8800000000000001,-0.9,0.5132168847590687
0.9000000000000001,-0.9,0.5886781257992147
0.9199999999999999,-0.9,0.6548555611362404
0.94,-0.9,0.7107055330823973
0.96,-0.9,0.7553472542169377
0.98,-0.9,0.7880766979298992
1.0,-0.9,0.808377701342306

-1.0,-0.88,0.7569075902167858
-0.98,-0.88,0.7622394607999219
-0.96,-0.88,0.7555503597464606
-0.94,-0.88,0.73694577817589
-0.92,-0.88,0.7067191214534168
-0.9,-0.88,0.6653470820120835
-0.88,-0.88,0.6134821216283386
-0.86,-0.88,0.551942181710059
-0.84,-0.88,0.4816977838719349
-0.8200000000000001,-0.88,0.40385672422984165
-0.8,-0.88,0.3196466027943306
-0.78,-0.88,0.23039546348512813
-0.76,-0.88,0.13751085008518646
-0.74,-0.88,0.04245760843440117
-0.72,-0.88,-0.05326521506434057
-0.7,-0.88,-0.14814801430242044
-0.6799999999999999,-0.88,-0.2406944308556171
-0.6599999999999999,-0.88,-0.32944495245033706
-0.64,-0.88,-0.4129999303440401
-0.62,-0.88,-0.4900416526220178
-0.6,-0.88,-0.5593551253014524
-0.5800000000000001,-0.88,-0.6198472335123281
-0.56,-0.88,-0.6705639805719249
-0.54,-0.88,-0.710705533082397
-0.52,-0.88,-0.7396388347812533
-0.5,-0.88,-0.7569075902167859
-0.48,-0.88,-0.7622394607999219
-0.45999999999999996,-0.88,-0.7555503597464602
-0.43999999999999995,-0.88,-0.7369457781758899
-0.42000000000000004,-0.88,-0.7067191214534166
-0.4,-0.88,-0.6653470820120834
-0.38,-0.88,-0.6134821216283385
-0.36,-0.88,-0.5519421817100592
-0.33999999999999997,-0.88,-0.4816977838719348
-0.31999999999999995,-0.88,-0.40385672422984165
-0.29999999999999993,-0.88,-0.31964660279433055
-0.28,-0.88,-0.230395463485128
-0.26,-0.88,-0.13751085008518632
-0.24,-0.88,-0.04245760843440105
-0.21999999999999997,-0.88,0.05326521506434061
-0.19999999999999996,-0.88,0.14814801430242042
-0.17999999999999994,-0.88,0.24069443085561706
-0.16000000000000003,-0.88,0.32944495245033706
-0.14,-0.88,0.41299993034404
-0.12,-0.88,0.4900416526220177
-0.09999999999999998,-0.88,0.5593551253014524
-0.07999999999999996,-0.88,0.619847233512328
-0.05999999999999994,-0.88,0.6705639805719248
-0.040000000000000036,-0.88,0.7107055330823969
-0.020000000000000018,-0.88,0.7396388347812533
0.0,-0.88,0.7569075902167857
0.020000000000000018,-0.88,0.7622394607999219
0.040000000000000036,-0.88,0.7555503597464603
0.06000000000000005,-0.88,0.7369457781758898
0.08000000000000007,-0.88,0.7067191214534166
0.10000000000000009,-0.88,0.6653470820120834
0.1200000000000001,-0.88,0.6134821216283384
0.14000000000000012,-0.88,0.551942181710059
0.15999999999999992,-0.88,0.4816977838719347
0.17999999999999994,-0.88,0.40385672422984137
0.19999999999999996,-0.88,0.3196466027943304
0.21999999999999997,-0.88,0.2303954634851279
0.24,-0.88,0.13751085008518626
0.26,-0.88,0.042457608434401044
0.28,-0.88,-0.05326521506434061
0.30000000000000004,-0.88,-0.14814801430242044
0.32000000000000006,-0.88,-0.24069443085561704
0.3400000000000001,-0.88,-0.32944495245033706
0.3600000000000001,-0.88,-0.41299993034404014
0.3800000000000001,-0.88,-0.49004165262201776
0.40000000000000013,-0.88,-0.5593551253014526
0.41999999999999993,-0.88,-0.6198472335123278
0.43999999999999995,-0.88,-0.6705639805719248
0.45999999999999996,-0.88,-0.7107055330823969
0.48,-0.88,-0.7396388347812531
0.5,-0.88,-0.7569075902167858
0.52,-0.88,-0.7622394607999219
0.54,-0.88,-0.7555503597464603
0.56,-0.88,-0.7369457781758899
0.5800000000000001,-0.88,-0.7067191214534166
0.6000000000000001,-0.88,-0.6653470820120835
0.6200000000000001,-0.88,-0.6134821216283384
0.6400000000000001,-0.88,-0.5519421817100589
0.6600000000000001,-0.88,-0.4816977838719347
0.6799999999999999,-0.88,-0.4038567242298415
0.7,-0.88,-0.31964660279433055
0.72,-0.88,-0.23039546348512807
0.74,-0.88,-0.13751085008518643
0.76,-0.88,-0.04245760843440122
0.78,-0.88,0.05326521506434045
0.8,-0.88,0.1481480143024203
0.8200000000000001,-0.88,0.24069443085561695
0.8400000000000001,-0.88,0.32944495245033695
0.8600000000000001,-0.88,0.41299993034404
0.8800000000000001,-0.88,0.4900416526220177
0.9000000000000001,-0.88,0.5593551253014525
0.9199999999999999,-0.88,0.6198472335123281
0.94,-0.88,0.6705639805719248
0.96,-0.88,0.7107055330823969
0.98,-0.88,0.7396388347812533
1.0,-0.88,0.7569075902167858

-1.0,-0.86,0.6935005942388692
-0.98,-0.86,0.6965278444601335
-0.96,-0.86,0.6885704344886954
-0.94,-0.86,0.6697538574333313
-0.92,-0.86,0.6403748619546825
-0.9,-0.86,0.6008967723616083
-0.88,-0.86,0.5519421817100592
-0.86,-0.86,0.4942831331386653
-0.84,-0.86,0.42882894428724266
-0.8200000000000001,-0.86,0.35661186681441603
-0.8,-0.86,0.27877080717232283
-0.78,-0.86,0.1965333653715139
-0.76,-0.86,0.11119647499545432
-0.74,-0.86,0.024105949783161888
-0.72,-0.86,-0.06336474065740733
-0.7,-0.86,-0.14983613128554793
-0.6799999999999999,-0.86,-0.23394451661554916
-0.6599999999999999,-0.86,-0.314363457166843
-0.64,-0.86,-0.38982469820698906
-0.62,-0.86,-0.45913817088642367
-0.6,-0.86,-0.5212107603351309
-0.5800000000000001,-0.86,-0.575063544737137
-0.56,-0.86,-0.6198472335123278
-0.54,-0.86,-0.6548555611362403
-0.52,-0.86,-0.6795364253692837
-0.5,-0.86,-0.6935005942388691
-0.48,-0.86,-0.6965278444601333
-0.45999999999999996,-0.86,-0.6885704344886953
-0.43999999999999995,-0.86,-0.6697538574333313
-0.42000000000000004,-0.86,-0.6403748619546823
-0.4,-0.86,-0.6008967723616083
-0.38,-0.86,-0.5519421817100593
-0.36,-0.86,-0.4942831331386652
-0.33999999999999997,-0.86,-0.4288289442872427
-0.31999999999999995,-0.86,-0.356611866814416
-0.29999999999999993,-0.86,-0.2787708071723227
-0.28,-0.86,-0.19653336537151372
-0.26,-0.86,-0.11119647499545415
-0.24,-0.86,-0.024105949783161832
-0.21999999999999997,-0.86,0.06336474065740734
-0.19999999999999996,-0.86,0.1498361312855479
-0.17999999999999994,-0.86,0.23394451661554916
-0.16000000000000003,-0.86,0.31436345716684294
-0.14,-0.86,0.3898246982069889
-0.12,-0.86,0.45913817088642367
-0.09999999999999998,-0.86,0.5212107603351308
-0.07999999999999996,-0.86,0.5750635447371367
-0.05999999999999994,-0.86,0.6198472335123278
-0.040000000000000036,-0.86,0.6548555611362403
-0.020000000000000018,-0.86,0.6795364253692836
0.0,-0.86,0.6935005942388692
0.020000000000000018,-0.86,0.6965278444601333
0.040000000000000036,-0.86,0.6885704344886953
0.06000000000000005,-0.86,0.6697538574333313
0.08000000000000007,-0.86,0.6403748619546823
0.10000000000000009,-0.86,0.6008967723616083
0.1200000000000001,-0.86,0.551942181710059
0.14000000000000012,-0.86,0.49428313313866507
0.15999999999999992,-0.86,0.42882894428724255
0.17999999999999994,-0.86,0.35661186681441587
0.19999999999999996,-0.86,0.27877080717232267
0.21999999999999997,-0.86,0.19653336537151367
0.24,-0.86,0.11119647499545413
0.26,-0.86,0.024105949783161808
0.28,-0.86,-0.06336474065740735
0.30000000000000004,-0.86,-0.14983613128554787
0.32000000000000006,-0.86,-0.23394451661554908
0.3400000000000001,-0.86,-0.314363457166843
0.3600000000000001,-0.86,-0.389824698206989
0.3800000000000001,-0.86,-0.4591381708864237
0.40000000000000013,-0.86,-0.5212107603351307
0.41999999999999993,-0.86,-0.575063544737137
0.43999999999999995,-0.86,-0.6198472335123278