TITLE = "Solution" 
VARIABLES = "x", "y", "sol" 
ZONE STRANDID=1, SOLUTIONTIME= 0.9600000000000006, I= 101, J =101, DATAPACKING=POINT 
-1.0,-1.0,-0.20431755373274213
-0.98,-1.0,-0.17251657591653807
-0.96,-1.0,-0.13799490864172304
-0.94,-1.0,-0.10129697922346545
-0.92,-1.0,-0.06300153593097141
-0.9,-1.0,-0.02371252078155266
-0.88,-1.0,0.015950454985764508
-0.86,-1.0,0.05536188254961621
-0.84,-1.0,0.09390022015407501
-0.8200000000000001,-1.0,0.13095769519343142
-0.8,-1.0,0.1659498891492521
-0.78,-1.0,0.1983249542195307
-0.76,-1.0,0.2275723162881823
-0.74,-1.0,0.2532307269838571
-0.72,-1.0,0.27489553784229226
-0.7,-1.0,0.29222508185431995
-0.6799999999999999,-1.0,0.30494606175870237
-0.6599999999999999,-1.0,0.31285786010320277
-0.64,-1.0,0.31583570310164916
-0.62,-1.0,0.3138326283910791
-0.6,-1.0,0.3068802256562568
-0.5800000000000001,-1.0,0.2950881384414744
-0.56,-1.0,0.2786423350063605
-0.54,-1.0,0.25780217549533346
-0.52,-1.0,0.23289632167319038
-0.5,-1.0,0.20431755373274219
-0.48,-1.0,0.17251657591653816
-0.45999999999999996,-1.0,0.13799490864172317
-0.43999999999999995,-1.0,0.10129697922346546
-0.42000000000000004,-1.0,0.06300153593097152
-0.4,-1.0,0.023712520781552768
-0.38,-1.0,-0.01595045498576443
-0.36,-1.0,-0.05536188254961618
-0.33999999999999997,-1.0,-0.09390022015407495
-0.31999999999999995,-1.0,-0.13095769519343142
-0.29999999999999993,-1.0,-0.1659498891492522
-0.28,-1.0,-0.1983249542195309
-0.26,-1.0,-0.22757231628818253
-0.24,-1.0,-0.253230726983857
-0.21999999999999997,-1.0,-0.2748955378422923
-0.19999999999999996,-1.0,-0.29222508185431995
-0.17999999999999994,-1.0,-0.30494606175870237
-0.16000000000000003,-1.0,-0.31285786010320277
-0.14,-1.0,-0.3158357031016494
-0.12,-1.0,-0.3138326283910792
-0.09999999999999998,-1.0,-0.30688022565625706
-0.07999999999999996,-1.0,-0.2950881384414746
-0.05999999999999994,-1.0,-0.27864233500636054
-0.040000000000000036,-1.0,-0.2578021754953335
-0.020000000000000018,-1.0,-0.23289632167319044
0.0,-1.0,-0.20431755373274219
0.020000000000000018,-1.0,-0.17251657591653818
0.040000000000000036,-1.0,-0.13799490864172315
0.06000000000000005,-1.0,-0.10129697922346544
0.08000000000000007,-1.0,-0.06300153593097141
0.10000000000000009,-1.0,-0.023712520781552716
0.1200000000000001,-1.0,0.015950454985764466
0.14000000000000012,-1.0,0.05536188254961628
0.15999999999999992,-1.0,0.09390022015407498
0.17999999999999994,-1.0,0.1309576951934314
0.19999999999999996,-1.0,0.16594988914925224
0.21999999999999997,-1.0,0.19832495421953078
0.24,-1.0,0.2275723162881824
0.26,-1.0,0.2532307269838571
0.28,-1.0,0.27489553784229237
0.30000000000000004,-1.0,0.29222508185432
0.32000000000000006,-1.0,0.3049460617587025
0.3400000000000001,-1.0,0.31285786010320266
0.3600000000000001,-1.0,0.31583570310164943
0.3800000000000001,-1.0,0.31383262839107934
0.40000000000000013,-1.0,0.3068802256562569
0.41999999999999993,-1.0,0.29508813844147447
0.43999999999999995,-1.0,0.2786423350063604
0.45999999999999996,-1.0,0.2578021754953335
0.48,-1.0,0.23289632167319038
0.5,-1.0,0.2043175537327421
0.52,-1.0,0.17251657591653816
0.54,-1.0,0.13799490864172306
0.56,-1.0,0.1012969792234654
0.5800000000000001,-1.0,0.06300153593097146
0.6000000000000001,-1.0,0.02371252078155271
0.6200000000000001,-1.0,-0.01595045498576441
0.6400000000000001,-1.0,-0.055361882549616194
0.6600000000000001,-1.0,-0.09390022015407501
0.6799999999999999,-1.0,-0.13095769519343137
0.7,-1.0,-0.16594988914925218
0.72,-1.0,-0.19832495421953086
0.74,-1.0,-0.22757231628818234
0.76,-1.0,-0.253230726983857
0.78,-1.0,-0.2748955378422922
0.8,-1.0,-0.29222508185431995
0.8200000000000001,-1.0,-0.3049460617587025
0.8400000000000001,-1.0,-0.31285786010320277
0.8600000000000001,-1.0,-0.3158357031016493
0.8800000000000001,-1.0,-0.31383262839107934
0.9000000000000001,-1.0,-0.3068802256562569
0.9199999999999999,-1.0,-0.29508813844147436
0.94,-1.0,-0.27864233500636043
0.96,-1.0,-0.2578021754953334
0.98,-1.0,-0.23289632167319038
1.0,-1.0,-0.20431755373274213

-1.0,-0.98,-0.1725165759165381
-0.98,-0.98,-0.13064852742151575
-0.96,-0.98,-0.08672007360340896
-0.94,-0.98,-0.04142399242051538
-0.92,-0.98,0.004525369868343357
-0.9,-0.98,0.050403364371053465
-0.88,-0.98,0.09548646770812158
-0.86,-0.98,0.13906369240858193
-0.84,-0.98,0.18044779960713567
-0.8200000000000001,-0.98,0.2189861372115942
-0.8,-0.98,0.25407093261624875
-0.78,-0.98,0.28514887763892666
-0.76,-0.98,0.31172985452155594
-0.74,-0.98,0.333394665379991
-0.72,-0.98,0.34980164320506424
-0.7,-0.98,0.3606920401554204
-0.6799999999999999,-0.98,0.36589410816554474
-0.6599999999999999,-0.98,0.36532580751535326
-0.64,-0.98,0.35899610064558596
-0.62,-0.98,0.3470048108147622
-0.6,-0.98,0.3295410478267634
-0.5800000000000001,-0.98,0.30688022565625667
-0.56,-0.98,0.2793797190057895
-0.54,-0.98,0.2474732272932469
-0.52,-0.98,0.21166393495294944
-0.5,-0.98,0.17251657591653818
-0.48,-0.98,0.1306485274215159
-0.45999999999999996,-0.98,0.086720073603409
-0.43999999999999995,-0.98,0.041423992420515476
-0.42000000000000004,-0.98,-0.00452536986834326
-0.4,-0.98,-0.05040336437105333
-0.38,-0.98,-0.09548646770812155
-0.36,-0.98,-0.1390636924085818
-0.33999999999999997,-0.98,-0.1804477996071357
-0.31999999999999995,-0.98,-0.2189861372115943
-0.29999999999999993,-0.98,-0.25407093261624897
-0.28,-0.98,-0.2851488776389269
-0.26,-0.98,-0.3117298545215558
-0.24,-0.98,-0.33339466537999113
-0.21999999999999997,-0.98,-0.34980164320506435
-0.19999999999999996,-0.98,-0.36069204015542033
-0.17999999999999994,-0.98,-0.36589410816554474
-0.16000000000000003,-0.98,-0.36532580751535343
-0.14,-0.98,-0.3589961006455861
-0.12,-0.98,-0.34700481081476237
-0.09999999999999998,-0.98,-0.3295410478267636
-0.07999999999999996,-0.98,-0.3068802256562567
-0.05999999999999994,-0.98,-0.27937971900578956
-0.040000000000000036,-0.98,-0.24747322729324694
-0.020000000000000018,-0.98,-0.21166393495294947
0.0,-0.98,-0.17251657591653818
0.020000000000000018,-0.98,-0.13064852742151586
0.040000000000000036,-0.98,-0.08672007360340897
0.06000000000000005,-0.98,-0.041423992420515365
0.08000000000000007,-0.98,0.004525369868343294
0.10000000000000009,-0.98,0.05040336437105342
0.1200000000000001,-0.98,0.09548646770812166
0.14000000000000012,-0.98,0.13906369240858182
0.15999999999999992,-0.98,0.18044779960713567
0.17999999999999994,-0.98,0.21898613721159438
0.19999999999999996,-0.98,0.25407093261624886
0.21999999999999997,-0.98,0.2851488776389267
0.24,-0.98,0.31172985452155594
0.26,-0.98,0.33339466537999113
0.28,-0.98,0.3498016432050644
0.30000000000000004,-0.98,0.3606920401554205
0.32000000000000006,-0.98,0.36589410816554463
0.3400000000000001,-0.98,0.3653258075153536
0.3600000000000001,-0.98,0.3589961006455861
0.3800000000000001,-0.98,0.34700481081476225
0.40000000000000013,-0.98,0.3295410478267635
0.41999999999999993,-0.98,0.3068802256562566
0.43999999999999995,-0.98,0.2793797190057896
0.45999999999999996,-0.98,0.2474732272932469
0.48,-0.98,0.2116639349529494
0.5,-0.98,0.17251657591653816
0.52,-0.98,0.13064852742151578
0.54,-0.98,0.08672007360340891
0.56,-0.98,0.04142399242051542
0.5800000000000001,-0.98,-0.004525369868343301
0.6000000000000001,-0.98,-0.05040336437105334
0.6200000000000001,-0.98,-0.09548646770812158
0.6400000000000001,-0.98,-0.13906369240858188
0.6600000000000001,-0.98,-0.18044779960713564
0.6799999999999999,-0.98,-0.21898613721159427
0.7,-0.98,-0.25407093261624886
0.72,-0.98,-0.28514887763892666
0.74,-0.98,-0.31172985452155577
0.76,-0.98,-0.333394665379991
0.78,-0.98,-0.3498016432050643
0.8,-0.98,-0.36069204015542045
0.8200000000000001,-0.98,-0.3658941081655447
0.8400000000000001,-0.98,-0.36532580751535343
0.8600000000000001,-0.98,-0.35899610064558607
0.8800000000000001,-0.98,-0.3470048108147623
0.9000000000000001,-0.98,-0.3295410478267633
0.9199999999999999,-0.98,-0.30688022565625667
0.94,-0.98,-0.2793797190057895
0.96,-0.98,-0.24747322729324692
0.98,-0.98,-0.21166393495294938
1.0,-0.98,-0.1725165759165381

-1.0,-0.96,-0.13799490864172304
-0.98,-0.96,-0.08672007360340891
-0.96,-0.96,-0.0340776112003081
-0.94,-0.96,0.01910227548839983
-0.92,-0.96,0.07198090788150954
-0.9,-0.96,0.12372435835801765
-0.88,-0.96,0.17351660179387093
-0.86,-0.96,0.22057238476564117
-0.84,-0.96,0.2641496094661012
-0.8200000000000001,-0.96,0.3035610370299531
-0.8,-0.96,0.3381851257012689
-0.78,-0.96,0.367475832918274
-0.76,-0.96,0.3909712267307355
-0.74,-0.96,0.40830077074276305
-0.72,-0.96,0.41919116769311915
-0.7,-0.96,0.4234706695162888
-0.6799999999999999,-0.96,0.4210717859120711
-0.6599999999999999,-0.96,0.41203234870792793
-0.64,-0.96,0.39649491522846636
-0.62,-0.96,0.3747045200812703
-0.6,-0.96,0.3470048108147621
-0.5800000000000001,-0.96,0.31383262839107856
-0.56,-0.96,0.2757111179431429
-0.54,-0.96,0.23324147846340548
-0.52,-0.96,0.18709348153659466
-0.5,-0.96,0.13799490864172317
-0.48,-0.96,0.08672007360340898
-0.45999999999999996,-0.96,0.034077611200308194
-0.43999999999999995,-0.96,-0.01910227548839974
-0.42000000000000004,-0.96,-0.07198090788150938
-0.4,-0.96,-0.1237243583580176
-0.38,-0.96,-0.17351660179387077
-0.36,-0.96,-0.2205723847656412
-0.33999999999999997,-0.96,-0.2641496094661013
-0.31999999999999995,-0.96,-0.3035610370299533
-0.29999999999999993,-0.96,-0.3381851257012691
-0.28,-0.96,-0.3674758329182739
-0.26,-0.96,-0.39097122673073553
-0.24,-0.96,-0.40830077074276316
-0.21999999999999997,-0.96,-0.41919116769311915
-0.19999999999999996,-0.96,-0.4234706695162888
-0.17999999999999994,-0.96,-0.4210717859120712
-0.16000000000000003,-0.96,-0.41203234870792815
-0.14,-0.96,-0.3964949152284665
-0.12,-0.96,-0.37470452008127036
-0.09999999999999998,-0.96,-0.3470048108147621
-0.07999999999999996,-0.96,-0.31383262839107856
-0.05999999999999994,-0.96,-0.275711117943143
-0.040000000000000036,-0.96,-0.2332414784634055
-0.020000000000000018,-0.96,-0.18709348153659466
0.0,-0.96,-0.13799490864172312
0.020000000000000018,-0.96,-0.08672007360340898
0.040000000000000036,-0.96,-0.03407761120030809
0.06000000000000005,-0.96,0.019102275488399767
0.08000000000000007,-0.96,0.07198090788150951
0.10000000000000009,-0.96,0.12372435835801773
0.1200000000000001,-0.96,0.1735166017938708
0.14000000000000012,-0.96,0.22057238476564117
0.15999999999999992,-0.96,0.2641496094661014
0.17999999999999994,-0.96,0.3035610370299533
0.19999999999999996,-0.96,0.338185125701269
0.21999999999999997,-0.96,0.36747583291827407
0.24,-0.96,0.39097122673073553
0.26,-0.96,0.4083007707427632
0.28,-0.96,0.4191911676931192
0.30000000000000004,-0.96,0.42347066951628876
0.32000000000000006,-0.96,0.4210717859120714
0.3400000000000001,-0.96,0.4120323487079281
0.3600000000000001,-0.96,0.3964949152284664
0.3800000000000001,-0.96,0.3747045200812703
0.40000000000000013,-0.96,0.34700481081476203
0.41999999999999993,-0.96,0.3138326283910787
0.43999999999999995,-0.96,0.27571111794314296
0.45999999999999996,-0.96,0.23324147846340543
0.48,-0.96,0.1870934815365946
0.5,-0.96,0.13799490864172304
0.52,-0.96,0.08672007360340891
0.54,-0.96,0.034077611200308146
0.56,-0.96,-0.019102275488399795
0.5800000000000001,-0.96,-0.0719809078815094
0.6000000000000001,-0.96,-0.12372435835801762
0.6200000000000001,-0.96,-0.17351660179387085
0.6400000000000001,-0.96,-0.22057238476564112
0.6600000000000001,-0.96,-0.26414960946610133
0.6799999999999999,-0.96,-0.30356103702995324
0.7,-0.96,-0.3381851257012689
0.72,-0.96,-0.36747583291827385
0.74,-0.96,-0.3909712267307354
0.76,-0.96,-0.4083007707427631
0.78,-0.96,-0.41919116769311926
0.8,-0.96,-0.42347066951628887
0.8200000000000001,-0.96,-0.42107178591207123
0.8400000000000001,-0.96,-0.41203234870792804
0.8600000000000001,-0.96,-0.3964949152284664
0.8800000000000001,-0.96,-0.37470452008127014
0.9000000000000001,-0.96,-0.3470048108147621
0.9199999999999999,-0.96,-0.31383262839107856
0.94,-0.96,-0.27571111794314296
0.96,-0.96,-0.23324147846340543
0.98,-0.96,-0.18709348153659452
1.0,-0.96,-0.13799490864172304

-1.0,-0.94,-0.10129697922346537
-0.98,-0.94,-0.04142399242051539
-0.96,-0.94,0.019102275488399836
-0.94,-0.94,0.07932728910171682
-0.92,-0.94,0.13830126397807413
-0.9,-0.94,0.19509414530432703
-0.88,-0.94,0.24881027541553727
-0.86,-0.94,0.2986025188513903
-0.84,-0.94,0.34368562218845866
-0.8200000000000001,-0.94,0.383348597955776
-0.8,-0.94,0.41696593733197856
-0.78,-0.94,0.4440074747930779
-0.76,-0.94,0.46404674913948124
-0.74,-0.94,0.47676772904386355
-0.72,-0.94,0.4819697970539875
-0.7,-0.94,0.4795709134497697
-0.6799999999999999,-0.94,0.46960891005867195
-0.6599999999999999,-0.94,0.4522408936251842
-0.64,-0.94,0.4277407681436122
-0.62,-0.94,0.39649491522846625
-0.6,-0.94,0.35899610064558557
-0.5800000000000001,-0.94,0.31583570310164827
-0.56,-0.94,0.2676943878486943
-0.54,-0.94,0.21533137218649068
-0.52,-0.94,0.1595724521521792
-0.5,-0.94,0.10129697922346545
-0.48,-0.94,0.041423992420515476
-0.45999999999999996,-0.94,-0.019102275488399732
-0.43999999999999995,-0.94,-0.07932728910171666
-0.42000000000000004,-0.94,-0.13830126397807407
-0.4,-0.94,-0.19509414530432687
-0.38,-0.94,-0.2488102754155374
-0.36,-0.94,-0.2986025188513904
-0.33999999999999997,-0.94,-0.3436856221884589
-0.31999999999999995,-0.94,-0.38334859795577614
-0.29999999999999993,-0.94,-0.4169659373319784
-0.28,-0.94,-0.4440074747930779
-0.26,-0.94,-0.4640467491394814
-0.24,-0.94,-0.4767677290438636
-0.21999999999999997,-0.94,-0.4819697970539875
-0.19999999999999996,-0.94,-0.47957091344976976
-0.17999999999999994,-0.94,-0.4696089100586721
-0.16000000000000003,-0.94,-0.45224089362518427
-0.14,-0.94,-0.42774076814361234
-0.12,-0.94,-0.39649491522846625
-0.09999999999999998,-0.94,-0.3589961006455855
-0.07999999999999996,-0.94,-0.3158357031016484
-0.05999999999999994,-0.94,-0.2676943878486944
-0.040000000000000036,-0.94,-0.2153313721864906
-0.020000000000000018,-0.94,-0.1595724521521791
0.0,-0.94,-0.10129697922346548
0.020000000000000018,-0.94,-0.04142399242051538
0.040000000000000036,-0.94,0.019102275488399767
0.06000000000000005,-0.94,0.07932728910171677
0.08000000000000007,-0.94,0.13830126397807424
0.10000000000000009,-0.94,0.19509414530432687
0.1200000000000001,-0.94,0.2488102754155373
0.14000000000000012,-0.94,0.2986025188513905
0.15999999999999992,-0.94,0.34368562218845883
0.17999999999999994,-0.94,0.3833485979557762
0.19999999999999996,-0.94,0.41696593733197856
0.21999999999999997,-0.94,0.4440074747930779
0.24,-0.94,0.46404674913948146
0.26,-0.94,0.47676772904386366
0.28,-0.94,0.4819697970539875
0.30000000000000004,-0.94,0.47957091344977
0.32000000000000006,-0.94,0.4696089100586721
0.3400000000000001,-0.94,0.45224089362518416
0.3600000000000001,-0.94,0.42774076814361217
0.3800000000000001,-0.94,0.3964949152284662
0.40000000000000013,-0.94,0.3589961006455857
0.41999999999999993,-0.94,0.3158357031016483
0.43999999999999995,-0.94,0.2676943878486943
0.45999999999999996,-0.94,0.21533137218649057
0.48,-0.94,0.159572452152179
0.5,-0.94,0.10129697922346538
0.52,-0.94,0.04142399242051545
0.54,-0.94,-0.019102275488399788
0.56,-0.94,-0.07932728910171671
0.5800000000000001,-0.94,-0.13830126397807413
0.6000000000000001,-0.94,-0.19509414530432695
0.6200000000000001,-0.94,-0.24881027541553732
0.6400000000000001,-0.94,-0.29860251885139044
0.6600000000000001,-0.94,-0.34368562218845883
0.6799999999999999,-0.94,-0.383348597955776
0.7,-0.94,-0.4169659373319783
0.72,-0.94,-0.4440074747930777
0.74,-0.94,-0.4640467491394813
0.76,-0.94,-0.47676772904386366
0.78,-0.94,-0.4819697970539876
0.8,-0.94,-0.4795709134497697
0.8200000000000001,-0.94,-0.46960891005867206
0.8400000000000001,-0.94,-0.4522408936251842
0.8600000000000001,-0.94,-0.4277407681436121
0.8800000000000001,-0.94,-0.39649491522846636
0.9000000000000001,-0.94,-0.3589961006455856
0.9199999999999999,-0.94,-0.3158357031016483
0.94,-0.94,-0.2676943878486943
0.96,-0.94,-0.21533137218649043
0.98,-0.94,-0.15957245215217902
1.0,-0.94,-0.10129697922346537

-1.0,-0.92,-0.06300153593097142
-0.98,-0.92,0.004525369868343357
-0.96,-0.92,0.07198090788150954
-0.94,-0.92,0.13830126397807413
-0.92,-0.92,0.20244052652453431
-0.9,-0.92,0.2633871810355938
-0.88,-0.92,0.32018006236184643
-0.86,-0.92,0.3719235128383548
-0.84,-0.92,0.41780150734106514
-0.8200000000000001,-0.92,0.45709052249048426
-0.8,-0.92,0.48917094704758524
-0.78,-0.92,0.5135368535531858
-0.76,-0.92,0.5298039771062061
-0.74,-0.92,0.5377157754507059
-0.72,-0.92,0.5371474748005141
-0.7,-0.92,0.5281080375963705
-0.6799999999999999,-0.92,0.5107400211628826
-0.6599999999999999,-0.92,0.48531732949435624
-0.64,-0.92,0.45224089362518394
-0.62,-0.92,0.41203234870792754
-0.6,-0.92,0.3653258075153525
-0.5800000000000001,-0.92,0.31285786010320105
-0.56,-0.92,0.2554559573449959
-0.54,-0.92,0.194025361537468
-0.52,-0.92,0.1295348698733614
-0.5,-0.92,0.06300153593097149
-0.48,-0.92,-0.004525369868343246
-0.45999999999999996,-0.92,-0.07198090788150938
-0.43999999999999995,-0.92,-0.13830126397807405
-0.42000000000000004,-0.92,-0.20244052652453415
-0.4,-0.92,-0.26338718103559394
-0.38,-0.92,-0.32018006236184654
-0.36,-0.92,-0.371923512838355
-0.33999999999999997,-0.92,-0.4178015073410653
-0.31999999999999995,-0.92,-0.45709052249048415
-0.29999999999999993,-0.92,-0.48917094704758507
-0.28,-0.92,-0.513536853553186
-0.26,-0.92,-0.5298039771062062
-0.24,-0.92,-0.5377157754507058
-0.21999999999999997,-0.92,-0.537147474800514
-0.19999999999999996,-0.92,-0.5281080375963706
-0.17999999999999994,-0.92,-0.5107400211628828
-0.16000000000000003,-0.92,-0.4853173294943563
-0.14,-0.92,-0.45224089362518394
-0.12,-0.92,-0.4120323487079275
-0.09999999999999998,-0.92,-0.3653258075153526
-0.07999999999999996,-0.92,-0.3128578601032011
-0.05999999999999994,-0.92,-0.25545595734499577
-0.040000000000000036,-0.92,-0.19402536153746788
-0.020000000000000018,-0.92,-0.12953486987336146
0.0,-0.92,-0.06300153593097142
0.020000000000000018,-0.92,0.0045253698683432805
0.040000000000000036,-0.92,0.07198090788150946
0.06000000000000005,-0.92,0.1383012639780742
0.08000000000000007,-0.92,0.20244052652453412
0.10000000000000009,-0.92,0.2633871810355939
0.1200000000000001,-0.92,0.32018006236184665
0.14000000000000012,-0.92,0.37192351283835506
0.15999999999999992,-0.92,0.41780150734106536
0.17999999999999994,-0.92,0.45709052249048426
0.19999999999999996,-0.92,0.4891709470475851
0.21999999999999997,-0.92,0.513536853553186
0.24,-0.92,0.5298039771062061
0.26,-0.92,0.5377157754507058
0.28,-0.92,0.5371474748005143
0.30000000000000004,-0.92,0.5281080375963707
0.32000000000000006,-0.92,0.5107400211628826
0.3400000000000001,-0.92,0.48531732949435613
0.3600000000000001,-0.92,0.4522408936251839
0.3800000000000001,-0.92,0.41203234870792765
0.40000000000000013,-0.92,0.36532580751535254
0.41999999999999993,-0.92,0.312857860103201
0.43999999999999995,-0.92,0.25545595734499577
0.45999999999999996,-0.92,0.1940253615374678
0.48,-0.92,0.12953486987336132
0.5,-0.92,0.0630015359309715
0.52,-0.92,-0.004525369868343301
0.54,-0.92,-0.07198090788150946
0.56,-0.92,-0.13830126397807413
0.5800000000000001,-0.92,-0.20244052652453423
0.6000000000000001,-0.92,-0.2633871810355939
0.6200000000000001,-0.92,-0.32018006236184654
0.6400000000000001,-0.92,-0.371923512838355
0.6600000000000001,-0.92,-0.41780150734106514
0.6799999999999999,-0.92,-0.457090522490484
0.7,-0.92,-0.48917094704758496
0.72,-0.92,-0.5135368535531859
0.74,-0.92,-0.5298039771062062
0.76,-0.92,-0.537715775450706
0.78,-0.92,-0.537147474800514
0.8,-0.92,-0.5281080375963706
0.8200000000000001,-0.92,-0.5107400211628826
0.8400000000000001,-0.92,-0.48531732949435613
0.8600000000000001,-0.92,-0.4522408936251841
0.8800000000000001,-0.92,-0.41203234870792765
0.9000000000000001,-0.92,-0.36532580751535254
0.9199999999999999,-0.92,-0.312857860103201
0.94,-0.92,-0.2554559573449956
0.96,-0.92,-0.19402536153746783
0.98,-0.92,-0.12953486987336135
1.0,-0.92,-0.06300153593097142

-1.0,-0.9,-0.023712520781552653
-0.98,-0.9,0.05040336437105348
-0.96,-0.9,0.12372435835801765
-0.94,-0.9,0.195094145304327
-0.92,-0.9,0.2633871810355937
-0.9,-0.9,0.32752644358205374
-0.88,-0.9,0.3865004184584114
-0.86,-0.9,0.4393790508515213
-0.84,-0.9,0.4853284131403806
-0.8200000000000001,-0.9,0.5236238564328745
-0.8,-0.9,0.5536614387116916
-0.78,-0.9,0.5749674493607133
-0.76,-0.9,0.5872058798644108
-0.74,-0.9,0.5901837228628564
-0.72,-0.9,0.5838540159930885
-0.7,-0.9,0.5683165825136267
-0.6799999999999999,-0.9,0.5438164570320546
-0.6599999999999999,-0.9,0.5107400211628823
-0.64,-0.9,0.4696089100586715
-0.62,-0.9,0.4210717859120702
-0.6,-0.9,0.3658941081655428
-0.5800000000000001,-0.9,0.3049460617586997
-0.56,-0.9,0.23918883379197461
-0.54,-0.9,0.16965945503186666
-0.52,-0.9,0.09745444531626034
-0.5,-0.9,0.02371252078155277
-0.48,-0.9,-0.05040336437105331
-0.45999999999999996,-0.9,-0.12372435835801754
-0.43999999999999995,-0.9,-0.19509414530432684
-0.42000000000000004,-0.9,-0.2633871810355939
-0.4,-0.9,-0.3275264435820538
-0.38,-0.9,-0.3865004184584115
-0.36,-0.9,-0.43937905085152146
-0.33999999999999997,-0.9,-0.4853284131403805
-0.31999999999999995,-0.9,-0.5236238564328743
-0.29999999999999993,-0.9,-0.5536614387116918
-0.28,-0.9,-0.5749674493607135
-0.26,-0.9,-0.5872058798644106
-0.24,-0.9,-0.5901837228628563
-0.21999999999999997,-0.9,-0.5838540159930886
-0.19999999999999996,-0.9,-0.5683165825136269
-0.17999999999999994,-0.9,-0.5438164570320547
-0.16000000000000003,-0.9,-0.5107400211628823
-0.14,-0.9,-0.46960891005867145
-0.12,-0.9,-0.42107178591207034
-0.09999999999999998,-0.9,-0.3658941081655429
-0.07999999999999996,-0.9,-0.3049460617586996
-0.05999999999999994,-0.9,-0.23918883379197448
-0.040000000000000036,-0.9,-0.16965945503186666
-0.020000000000000018,-0.9,-0.09745444531626031
0.0,-0.9,-0.02371252078155275
0.020000000000000018,-0.9,0.05040336437105338
0.040000000000000036,-0.9,0.1237243583580177
0.06000000000000005,-0.9,0.1950941453043268
0.08000000000000007,-0.9,0.2633871810355939
0.10000000000000009,-0.9,0.3275264435820539
0.1200000000000001,-0.9,0.3865004184584116
0.14000000000000012,-0.9,0.43937905085152157
0.15999999999999992,-0.9,0.4853284131403806
0.17999999999999994,-0.9,0.5236238564328745
0.19999999999999996,-0.9,0.5536614387116918
0.21999999999999997,-0.9,0.5749674493607134
0.24,-0.9,0.5872058798644106
0.26,-0.9,0.5901837228628567
0.28,-0.9,0.5838540159930886
0.30000000000000004,-0.9,0.5683165825136266
0.32000000000000006,-0.9,0.5438164570320545
0.3400000000000001,-0.9,0.5107400211628821
0.3600000000000001,-0.9,0.4696089100586715
0.3800000000000001,-0.9,0.42107178591207034
0.40000000000000013,-0.9,0.36589410816554274
0.41999999999999993,-0.9,0.30494606175869965
0.43999999999999995,-0.9,0.23918883379197442
0.45999999999999996,-0.9,0.16965945503186658
0.48,-0.9,0.09745444531626038
0.5,-0.9,0.023712520781552723
0.52,-0.9,-0.05040336437105338
0.54,-0.9,-0.12372435835801762
0.56,-0.9,-0.19509414530432692
0.5800000000000001,-0.9,-0.26338718103559383
0.6000000000000001,-0.9,-0.32752644358205385
0.6200000000000001,-0.9,-0.38650041845841143
0.6400000000000001,-0.9,-0.43937905085152135
0.6600000000000001,-0.9,-0.48532841314038033
0.6799999999999999,-0.9,-0.5236238564328742
0.7,-0.9,-0.5536614387116916
0.72,-0.9,-0.5749674493607135
0.74,-0.9,-0.5872058798644108
0.76,-0.9,-0.5901837228628564
0.78,-0.9,-0.5838540159930885
0.8,-0.9,-0.5683165825136268
0.8200000000000001,-0.9,-0.5438164570320545
0.8400000000000001,-0.9,-0.5107400211628823
0.8600000000000001,-0.9,-0.4696089100586716
0.8800000000000001,-0.9,-0.4210717859120704
0.9000000000000001,-0.9,-0.3658941081655427
0.9199999999999999,-0.9,-0.3049460617586995
0.94,-0.9,-0.23918883379197445
0.96,-0.9,-0.1696594550318666
0.98,-0.9,-0.09745444531626028
1.0,-0.9,-0.023712520781552653

-1.0,-0.88,0.01595045498576454
-0.98,-0.88,0.09548646770812157
-0.96,-0.88,0.1735166017938709
-0.94,-0.88,0.24881027541553713
-0.92,-0.88,0.3201800623618464
-0.9,-0.88,0.3865004184584114
-0.88,-0.88,0.44672543207172855
-0.86,-0.88,0.49990531876043737
-0.84,-0.88,0.5452013999433308
-0.8200000000000001,-0.88,0.581899329361588
-0.8,-0.88,0.6094203587460026
-0.78,-0.88,0.6273304650229167
-0.76,-0.88,0.6353471951173638
-0.74,-0.88,0.633344120406793
-0.72,-0.88,0.6213528305759688
-0.7,-0.88,0.5995624354287723
-0.6799999999999999,-0.88,0.568316582513626
-0.6599999999999999,-0.88,0.5281080375963697
-0.64,-0.88,0.47957091344976843
-0.62,-0.88,0.4234706695162866
-0.6,-0.88,0.36069204015541717
-0.5800000000000001,-0.88,0.2922250818543162
-0.56,-0.88,0.21914955944557057
-0.54,-0.88,0.14261791757076703
-0.52,-0.88,0.06383710594005808
-0.5,-0.88,-0.015950454985764376
-0.48,-0.88,-0.09548646770812146
-0.45999999999999996,-0.88,-0.17351660179387074
-0.43999999999999995,-0.88,-0.2488102754155372
-0.42000000000000004,-0.88,-0.32018006236184643
-0.4,-0.88,-0.3865004184584115
-0.38,-0.88,-0.44672543207172877
-0.36,-0.88,-0.4999053187604372
-0.33999999999999997,-0.88,-0.5452013999433306
-0.31999999999999995,-0.88,-0.5818993293615881
-0.29999999999999993,-0.88,-0.6094203587460026
-0.28,-0.88,-0.6273304650229167
-0.26,-0.88,-0.6353471951173637
-0.24,-0.88,-0.633344120406793
-0.21999999999999997,-0.88,-0.6213528305759689
-0.19999999999999996,-0.88,-0.5995624354287725
-0.17999999999999994,-0.88,-0.568316582513626
-0.16000000000000003,-0.88,-0.5281080375963696
-0.14,-0.88,-0.47957091344976865
-0.12,-0.88,-0.42347066951628665
-0.09999999999999998,-0.88,-0.36069204015541706
-0.07999999999999996,-0.88,-0.2922250818543161
-0.05999999999999994,-0.88,-0.21914955944557057
-0.040000000000000036,-0.88,-0.142617917570767
-0.020000000000000018,-0.88,-0.06383710594005808
0.0,-0.88,0.01595045498576444
0.020000000000000018,-0.88,0.09548646770812158
0.040000000000000036,-0.88,0.1735166017938707
0.06000000000000005,-0.88,0.24881027541553724
0.08000000000000007,-0.88,0.3201800623618466
0.10000000000000009,-0.88,0.3865004184584116
0.1200000000000001,-0.88,0.4467254320717289
0.14000000000000012,-0.88,0.4999053187604372
0.15999999999999992,-0.88,0.5452013999433307
0.17999999999999994,-0.88,0.5818993293615882
0.19999999999999996,-0.88,0.6094203587460028
0.21999999999999997,-0.88,0.6273304650229166
0.24,-0.88,0.6353471951173641
0.26,-0.88,0.6333441204067931
0.28,-0.88,0.6213528305759688
0.30000000000000004,-0.88,0.5995624354287723
0.32000000000000006,-0.88,0.568316582513626
0.3400000000000001,-0.88,0.5281080375963697
0.3600000000000001,-0.88,0.47957091344976854
0.3800000000000001,-0.88,0.4234706695162865
0.40000000000000013,-0.88,0.3606920401554171
0.41999999999999993,-0.88,0.29222508185431606
0.43999999999999995,-0.88,0.21914955944557052
0.45999999999999996,-0.88,0.1426179175707671
0.48,-0.88,0.06383710594005805
0.5,-0.88,-0.01595045498576445
0.52,-0.88,-0.09548646770812155
0.54,-0.88,-0.17351660179387082
0.56,-0.88,-0.24881027541553719
0.5800000000000001,-0.88,-0.32018006236184654
0.6000000000000001,-0.88,-0.38650041845841143
0.6200000000000001,-0.88,-0.44672543207172866
0.6400000000000001,-0.88,-0.4999053187604369
0.6600000000000001,-0.88,-0.5452013999433305
0.6799999999999999,-0.88,-0.581899329361588
0.7,-0.88,-0.6094203587460029
0.72,-0.88,-0.6273304650229167
0.74,-0.88,-0.6353471951173639
0.76,-0.88,-0.633344120406793
0.78,-0.88,-0.6213528305759689
0.8,-0.88,-0.5995624354287722
0.8200000000000001,-0.88,-0.5683165825136263
0.8400000000000001,-0.88,-0.5281080375963698
0.8600000000000001,-0.88,-0.47957091344976865
0.8800000000000001,-0.88,-0.42347066951628637
0.9000000000000001,-0.88,-0.36069204015541695
0.9199999999999999,-0.88,-0.2922250818543161
0.94,-0.88,-0.21914955944557052
0.96,-0.88,-0.14261791757076697
0.98,-0.88,-0.06383710594005795
1.0,-0.88,0.01595045498576454

-1.0,-0.86,0.05536188254961619
-0.98,-0.86,0.13906369240858188
-0.96,-0.86,0.22057238476564095
-0.94,-0.86,0.2986025188513902
-0.92,-0.86,0.37192351283835484
-0.9,-0.86,0.43937905085152124
-0.88,-0.86,0.4999053187604372
-0.86,-0.86,0.5525477811635381
-0.84,-0.86,0.5964762349816446
-0.8200000000000001,-0.86,0.630997902256459
-0.8,-0.86,0.6555683556728131
-0.78,-0.86,0.6698001045026534
-0.76,-0.86,0.6734687055652989
-0.74,-0.86,0.6665163028304759
-0.72,-0.86,0.6490525398424765
-0.7,-0.86,0.6213528305759679
-0.6799999999999999,-0.86,0.5838540159930872
-0.6599999999999999,-0.86,0.5371474748005121
-0.64,-0.86,0.4819697970539846
-0.62,-0.86,0.4191911676931152
-0.6,-0.86,0.3498016432050598
-0.5800000000000001,-0.86,0.27489553784228804
-0.56,-0.86,0.19565416563310875
-0.54,-0.86,0.11332721035376209
-0.52,-0.86,0.029213017268742387
-0.5,-0.86,-0.05536188254961606
-0.48,-0.86,-0.1390636924085817
-0.45999999999999996,-0.86,-0.220572384765641
-0.43999999999999995,-0.86,-0.2986025188513902
-0.42000000000000004,-0.86,-0.37192351283835495
-0.4,-0.86,-0.4393790508515214
-0.38,-0.86,-0.49990531876043715
-0.36,-0.86,-0.5525477811635381
-0.33999999999999997,-0.86,-0.5964762349816446
-0.31999999999999995,-0.86,-0.6309979022564589
-0.29999999999999993,-0.86,-0.6555683556728131
-0.28,-0.86,-0.6698001045026533
-0.26,-0.86,-0.6734687055652989
-0.24,-0.86,-0.6665163028304758
-0.21999999999999997,-0.86,-0.6490525398424766
-0.19999999999999996,-0.86,-0.621352830575968
-0.17999999999999994,-0.86,-0.5838540159930872
-0.16000000000000003,-0.86,-0.5371474748005122
-0.14,-0.86,-0.4819697970539847
-0.12,-0.86,-0.41919116769311504
-0.09999999999999998,-0.86,-0.3498016432050597
-0.07999999999999996,-0.86,-0.27489553784228804
-0.05999999999999994,-0.86,-0.19565416563310875
-0.040000000000000036,-0.86,-0.11332721035376211
-0.020000000000000018,-0.86,-0.02921301726874236
0.0,-0.86,0.05536188254961617
0.020000000000000018,-0.86,0.13906369240858174
0.040000000000000036,-0.86,0.22057238476564106
0.06000000000000005,-0.86,0.2986025188513904
0.08000000000000007,-0.86,0.371923512838355
0.10000000000000009,-0.86,0.43937905085152146
0.1200000000000001,-0.86,0.49990531876043703
0.14000000000000012,-0.86,0.5525477811635382
0.15999999999999992,-0.86,0.5964762349816447
0.17999999999999994,-0.86,0.6309979022564591
0.19999999999999996,-0.86,0.655568355672813
0.21999999999999997,-0.86,0.6698001045026536
0.24,-0.86,0.6734687055652989
0.26,-0.86,0.6665163028304759
0.28,-0.86,0.6490525398424765
0.30000000000000004,-0.86,0.6213528305759679
0.32000000000000006,-0.86,0.5838540159930873