TITLE = "Solution" 
VARIABLES = "x", "y", "sol" 
ZONE STRANDID=1, SOLUTIONTIME= 0.25000000000000006, I= 101, J =101, DATAPACKING=POINT 
-1.0,-1.0,0.9102202854552067
-0.98,-1.0,0.9030429266347707
-0.96,-1.0,0.8816240414096085
-0.94,-1.0,0.8463014183947424
-0.92,-1.0,0.7976321164558294
-0.9,-1.0,0.7363836795580772
-0.88,-1.0,0.6635220321394066
-0.86,-1.0,0.5801962459050484
-0.84,-1.0,0.4877204182803302
-0.8200000000000001,-1.0,0.3875529483092757
-0.8,-1.0,0.28127353683047435
-0.78,-1.0,0.17055827365118983
-0.76,-1.0,0.05715320460985198
-0.74,-1.0,-0.0571532046098529
-0.72,-1.0,-0.17055827365119094
-0.7,-1.0,-0.28127353683047557
-0.6799999999999999,-1.0,-0.3875529483092772
-0.6599999999999999,-1.0,-0.4877204182803319
-0.64,-1.0,-0.5801962459050503
-0.62,-1.0,-0.6635220321394086
-0.6,-1.0,-0.736383679558079
-0.5800000000000001,-1.0,-0.7976321164558311
-0.56,-1.0,-0.846301418394744
-0.54,-1.0,-0.8816240414096099
-0.52,-1.0,-0.9030429266347718
-0.5,-1.0,-0.9102202854552066
-0.48,-1.0,-0.9030429266347707
-0.45999999999999996,-1.0,-0.8816240414096086
-0.43999999999999995,-1.0,-0.8463014183947425
-0.42000000000000004,-1.0,-0.7976321164558293
-0.4,-1.0,-0.7363836795580772
-0.38,-1.0,-0.6635220321394066
-0.36,-1.0,-0.5801962459050483
-0.33999999999999997,-1.0,-0.4877204182803303
-0.31999999999999995,-1.0,-0.38755294830927556
-0.29999999999999993,-1.0,-0.2812735368304742
-0.28,-1.0,-0.17055827365118972
-0.26,-1.0,-0.0571532046098519
-0.24,-1.0,0.05715320460985293
-0.21999999999999997,-1.0,0.17055827365119083
-0.19999999999999996,-1.0,0.28127353683047546
-0.17999999999999994,-1.0,0.3875529483092771
-0.16000000000000003,-1.0,0.4877204182803319
-0.14,-1.0,0.5801962459050503
-0.12,-1.0,0.6635220321394086
-0.09999999999999998,-1.0,0.736383679558079
-0.07999999999999996,-1.0,0.7976321164558311
-0.05999999999999994,-1.0,0.8463014183947442
-0.040000000000000036,-1.0,0.88162404140961
-0.020000000000000018,-1.0,0.9030429266347717
0.0,-1.0,0.9102202854552065
0.020000000000000018,-1.0,0.9030429266347706
0.040000000000000036,-1.0,0.8816240414096086
0.06000000000000005,-1.0,0.8463014183947423
0.08000000000000007,-1.0,0.7976321164558292
0.10000000000000009,-1.0,0.7363836795580772
0.1200000000000001,-1.0,0.6635220321394066
0.14000000000000012,-1.0,0.580196245905048
0.15999999999999992,-1.0,0.4877204182803301
0.17999999999999994,-1.0,0.38755294830927534
0.19999999999999996,-1.0,0.2812735368304741
0.21999999999999997,-1.0,0.1705582736511896
0.24,-1.0,0.05715320460985185
0.26,-1.0,-0.057153204609852924
0.28,-1.0,-0.1705582736511909
0.30000000000000004,-1.0,-0.28127353683047557
0.32000000000000006,-1.0,-0.3875529483092771
0.3400000000000001,-1.0,-0.487720418280332
0.3600000000000001,-1.0,-0.5801962459050505
0.3800000000000001,-1.0,-0.6635220321394086
0.40000000000000013,-1.0,-0.736383679558079
0.41999999999999993,-1.0,-0.797632116455831
0.43999999999999995,-1.0,-0.846301418394744
0.45999999999999996,-1.0,-0.8816240414096099
0.48,-1.0,-0.9030429266347718
0.5,-1.0,-0.9102202854552066
0.52,-1.0,-0.9030429266347708
0.54,-1.0,-0.8816240414096086
0.56,-1.0,-0.8463014183947425
0.5800000000000001,-1.0,-0.7976321164558291
0.6000000000000001,-1.0,-0.736383679558077
0.6200000000000001,-1.0,-0.6635220321394065
0.6400000000000001,-1.0,-0.5801962459050483
0.6600000000000001,-1.0,-0.48772041828033014
0.6799999999999999,-1.0,-0.38755294830927556
0.7,-1.0,-0.28127353683047424
0.72,-1.0,-0.17055827365118983
0.74,-1.0,-0.057153204609852015
0.76,-1.0,0.05715320460985274
0.78,-1.0,0.17055827365119072
0.8,-1.0,0.28127353683047535
0.8200000000000001,-1.0,0.3875529483092769
0.8400000000000001,-1.0,0.4877204182803319
0.8600000000000001,-1.0,0.5801962459050503
0.8800000000000001,-1.0,0.6635220321394085
0.9000000000000001,-1.0,0.7363836795580792
0.9199999999999999,-1.0,0.797632116455831
0.94,-1.0,0.8463014183947437
0.96,-1.0,0.88162404140961
0.98,-1.0,0.9030429266347719
1.0,-1.0,0.9102202854552067

-1.0,-0.98,0.9030429266347707
-0.98,-0.98,0.8945118660195216
-0.96,-0.98,0.8718738189216569
-0.94,-0.98,0.8354858008672246
-0.92,-0.98,0.7859216726380901
-0.9,-0.98,0.7239630901446029
-0.88,-0.98,0.6505871772449481
-0.86,-0.98,0.566951115918199
-0.84,-0.98,0.47437389681324
-0.8200000000000001,-0.98,0.3743155179783058
-0.8,-0.98,0.2683539598196018
-0.78,-0.98,0.15816029940765733
-0.76,-0.98,0.04547235659367076
-0.74,-0.98,-0.0679327124476672
-0.72,-0.98,-0.1802664420326701
-0.7,-0.98,-0.28975726214086506
-0.6799999999999999,-0.98,-0.3946784371325001
-0.6599999999999999,-0.98,-0.49337529740108543
-0.64,-0.98,-0.584291334501539
-0.62,-0.98,-0.6659927482181787
-0.6,-0.98,-0.7371910584506343
-0.5800000000000001,-0.98,-0.7967634253147304
-0.56,-0.98,-0.8437703569982142
-0.54,-0.98,-0.8774705261078568
-0.52,-0.98,-0.8973324608452935
-0.5,-0.98,-0.9030429266347707
-0.48,-0.98,-0.8945118660195215
-0.45999999999999996,-0.98,-0.8718738189216572
-0.43999999999999995,-0.98,-0.8354858008672246
-0.42000000000000004,-0.98,-0.7859216726380902
-0.4,-0.98,-0.7239630901446029
-0.38,-0.98,-0.6505871772449481
-0.36,-0.98,-0.5669511159181992
-0.33999999999999997,-0.98,-0.47437389681323994
-0.31999999999999995,-0.98,-0.37431551797830565
-0.29999999999999993,-0.98,-0.26835395981960164
-0.28,-0.98,-0.15816029940765725
-0.26,-0.98,-0.045472356593670674
-0.24,-0.98,0.06793271244766722
-0.21999999999999997,-0.98,0.18026644203267
-0.19999999999999996,-0.98,0.28975726214086495
-0.17999999999999994,-0.98,0.39467843713250006
-0.16000000000000003,-0.98,0.49337529740108543
-0.14,-0.98,0.5842913345015391
-0.12,-0.98,0.6659927482181787
-0.09999999999999998,-0.98,0.7371910584506342
-0.07999999999999996,-0.98,0.7967634253147305
-0.05999999999999994,-0.98,0.8437703569982145
-0.040000000000000036,-0.98,0.8774705261078567
-0.020000000000000018,-0.98,0.8973324608452934
0.0,-0.98,0.9030429266347706
0.020000000000000018,-0.98,0.8945118660195216
0.040000000000000036,-0.98,0.8718738189216569
0.06000000000000005,-0.98,0.8354858008672242
0.08000000000000007,-0.98,0.7859216726380901
0.10000000000000009,-0.98,0.7239630901446029
0.1200000000000001,-0.98,0.650587177244948
0.14000000000000012,-0.98,0.5669511159181989
0.15999999999999992,-0.98,0.47437389681323966
0.17999999999999994,-0.98,0.3743155179783056
0.19999999999999996,-0.98,0.2683539598196015
0.21999999999999997,-0.98,0.1581602994076571
0.24,-0.98,0.04547235659367065
0.26,-0.98,-0.06793271244766724
0.28,-0.98,-0.18026644203267006
0.30000000000000004,-0.98,-0.289757262140865
0.32000000000000006,-0.98,-0.39467843713250017
0.3400000000000001,-0.98,-0.49337529740108554
0.3600000000000001,-0.98,-0.584291334501539
0.3800000000000001,-0.98,-0.6659927482181787
0.40000000000000013,-0.98,-0.737191058450634
0.41999999999999993,-0.98,-0.7967634253147307
0.43999999999999995,-0.98,-0.8437703569982145
0.45999999999999996,-0.98,-0.8774705261078567
0.48,-0.98,-0.8973324608452934
0.5,-0.98,-0.9030429266347707
0.52,-0.98,-0.8945118660195217
0.54,-0.98,-0.8718738189216572
0.56,-0.98,-0.8354858008672243
0.5800000000000001,-0.98,-0.78592167263809
0.6000000000000001,-0.98,-0.7239630901446028
0.6200000000000001,-0.98,-0.6505871772449481
0.6400000000000001,-0.98,-0.566951115918199
0.6600000000000001,-0.98,-0.4743738968132397
0.6799999999999999,-0.98,-0.3743155179783056
0.7,-0.98,-0.2683539598196017
0.72,-0.98,-0.15816029940765733
0.74,-0.98,-0.04547235659367086
0.76,-0.98,0.06793271244766705
0.78,-0.98,0.18026644203266992
0.8,-0.98,0.2897572621408647
0.8200000000000001,-0.98,0.3946784371325
0.8400000000000001,-0.98,0.4933752974010854
0.8600000000000001,-0.98,0.584291334501539
0.8800000000000001,-0.98,0.6659927482181788
0.9000000000000001,-0.98,0.737191058450634
0.9199999999999999,-0.98,0.7967634253147304
0.94,-0.98,0.8437703569982145
0.96,-0.98,0.8774705261078569
0.98,-0.98,0.8973324608452935
1.0,-0.98,0.9030429266347707

-1.0,-0.96,0.8816240414096085
-0.98,-0.96,0.871873818921657
-0.96,-0.96,0.8483736254771376
-0.94,-0.96,0.8114940731650049
-0.92,-0.96,0.7618167745559982
-0.9,-0.96,0.7001251703249611
-0.88,-0.96,0.6273921739233953
-0.86,-0.96,0.5447648281531398
-0.84,-0.96,0.45354621561617475
-0.8200000000000001,-0.96,0.35517490832356624
-0.8,-0.96,0.2512022805554889
-0.78,-0.96,0.1432680427620828
-0.76,-0.96,0.033074382350138244
-0.74,-0.96,-0.07764088082914639
-0.72,-0.96,-0.18713170093734136
-0.7,-0.96,-0.2936713423346946
-0.6799999999999999,-0.96,-0.39557961123267327
-0.6599999999999999,-0.96,-0.49124935335370723
-0.64,-0.96,-0.579171799714214
-0.62,-0.96,-0.6579603608127649
-0.6,-0.96,-0.7263724939748302
-0.5800000000000001,-0.96,-0.7833292989930176
-0.56,-0.96,-0.8279325330278436
-0.54,-0.96,-0.8594787764338983
-0.52,-0.96,-0.877470526107856
-0.5,-0.96,-0.8816240414096085
-0.48,-0.96,-0.8718738189216572
-0.45999999999999996,-0.96,-0.8483736254771377
-0.43999999999999995,-0.96,-0.8114940731650049
-0.42000000000000004,-0.96,-0.7618167745559983
-0.4,-0.96,-0.7001251703249612
-0.38,-0.96,-0.6273921739233955
-0.36,-0.96,-0.5447648281531399
-0.33999999999999997,-0.96,-0.4535462156161747
-0.31999999999999995,-0.96,-0.3551749083235661
-0.29999999999999993,-0.96,-0.2512022805554889
-0.28,-0.96,-0.14326804276208266
-0.26,-0.96,-0.03307438235013817
-0.24,-0.96,0.07764088082914637
-0.21999999999999997,-0.96,0.18713170093734127
-0.19999999999999996,-0.96,0.29367134233469455
-0.17999999999999994,-0.96,0.39557961123267327
-0.16000000000000003,-0.96,0.4912493533537073
-0.14,-0.96,0.5791717997142138
-0.12,-0.96,0.6579603608127648
-0.09999999999999998,-0.96,0.7263724939748303
-0.07999999999999996,-0.96,0.7833292989930176
-0.05999999999999994,-0.96,0.8279325330278434
-0.040000000000000036,-0.96,0.8594787764338983
-0.020000000000000018,-0.96,0.8774705261078561
0.0,-0.96,0.8816240414096086
0.020000000000000018,-0.96,0.871873818921657
0.040000000000000036,-0.96,0.8483736254771375
0.06000000000000005,-0.96,0.8114940731650048
0.08000000000000007,-0.96,0.761816774555998
0.10000000000000009,-0.96,0.700125170324961
0.1200000000000001,-0.96,0.6273921739233953
0.14000000000000012,-0.96,0.5447648281531395
0.15999999999999992,-0.96,0.4535462156161746
0.17999999999999994,-0.96,0.3551749083235659
0.19999999999999996,-0.96,0.25120228055548866
0.21999999999999997,-0.96,0.14326804276208258
0.24,-0.96,0.03307438235013813
0.26,-0.96,-0.0776408808291464
0.28,-0.96,-0.18713170093734127
0.30000000000000004,-0.96,-0.29367134233469455
0.32000000000000006,-0.96,-0.39557961123267327
0.3400000000000001,-0.96,-0.49124935335370723
0.3600000000000001,-0.96,-0.579171799714214
0.3800000000000001,-0.96,-0.6579603608127649
0.40000000000000013,-0.96,-0.7263724939748304
0.41999999999999993,-0.96,-0.7833292989930177
0.43999999999999995,-0.96,-0.8279325330278434
0.45999999999999996,-0.96,-0.8594787764338981
0.48,-0.96,-0.8774705261078561
0.5,-0.96,-0.8816240414096086
0.52,-0.96,-0.871873818921657
0.54,-0.96,-0.8483736254771375
0.56,-0.96,-0.8114940731650047
0.5800000000000001,-0.96,-0.761816774555998
0.6000000000000001,-0.96,-0.7001251703249611
0.6200000000000001,-0.96,-0.6273921739233954
0.6400000000000001,-0.96,-0.5447648281531395
0.6600000000000001,-0.96,-0.4535462156161746
0.6799999999999999,-0.96,-0.355174908323566
0.7,-0.96,-0.2512022805554888
0.72,-0.96,-0.14326804276208283
0.74,-0.96,-0.03307438235013832
0.76,-0.96,0.07764088082914625
0.78,-0.96,0.18713170093734105
0.8,-0.96,0.29367134233469444
0.8200000000000001,-0.96,0.3955796112326731
0.8400000000000001,-0.96,0.4912493533537072
0.8600000000000001,-0.96,0.579171799714214
0.8800000000000001,-0.96,0.6579603608127647
0.9000000000000001,-0.96,0.7263724939748303
0.9199999999999999,-0.96,0.7833292989930176
0.94,-0.96,0.8279325330278436
0.96,-0.96,0.8594787764338983
0.98,-0.96,0.8774705261078563
1.0,-0.96,0.8816240414096085

-1.0,-0.94,0.8463014183947425
-0.98,-0.94,0.8354858008672243
-0.96,-0.94,0.811494073165005
-0.94,-0.94,0.7747045991659113
-0.92,-0.94,0.7256975708518758
-0.9,-0.94,0.6652458583347906
-0.88,-0.94,0.5943028212331527
-0.86,-0.94,0.5139872736213711
-0.84,-0.94,0.42556583966346617
-0.8200000000000001,-0.94,0.330432978193358
-0.8,-0.94,0.23008899126604726
-0.78,-0.94,0.12611636349796992
-0.76,-0.94,0.020154805339265735
-0.74,-0.94,-0.08612460613953585
-0.72,-0.94,-0.19104578113117093
-0.7,-0.94,-0.2929540500291497
-0.6799999999999999,-0.94,-0.3902422585559018
-0.6599999999999999,-0.94,-0.48137611354580184
-0.64,-0.94,-0.5649183796649332
-0.62,-0.94,-0.6395515454708657
-0.6,-0.94,-0.7040986013551483
-0.5800000000000001,-0.94,-0.7575416016879434
-0.56,-0.94,-0.7990377184287017
-0.54,-0.94,-0.8279325330278431
-0.52,-0.94,-0.8437703569982135
-0.5,-0.94,-0.8463014183947425
-0.48,-0.94,-0.8354858008672245
-0.45999999999999996,-0.94,-0.8114940731650048
-0.43999999999999995,-0.94,-0.7747045991659113
-0.42000000000000004,-0.94,-0.725697570851876
-0.4,-0.94,-0.6652458583347907
-0.38,-0.94,-0.5943028212331528
-0.36,-0.94,-0.5139872736213712
-0.33999999999999997,-0.94,-0.42556583966346606
-0.31999999999999995,-0.94,-0.330432978193358
-0.29999999999999993,-0.94,-0.23008899126604715
-0.28,-0.94,-0.1261163634979698
-0.26,-0.94,-0.02015480533926566
-0.24,-0.94,0.08612460613953585
-0.21999999999999997,-0.94,0.19104578113117093
-0.19999999999999996,-0.94,0.2929540500291496
-0.17999999999999994,-0.94,0.3902422585559018
-0.16000000000000003,-0.94,0.48137611354580184
-0.14,-0.94,0.564918379664933
-0.12,-0.94,0.6395515454708657
-0.09999999999999998,-0.94,0.7040986013551482
-0.07999999999999996,-0.94,0.7575416016879434
-0.05999999999999994,-0.94,0.7990377184287017
-0.040000000000000036,-0.94,0.8279325330278431
-0.020000000000000018,-0.94,0.8437703569982136
0.0,-0.94,0.8463014183947425
0.020000000000000018,-0.94,0.8354858008672245
0.040000000000000036,-0.94,0.8114940731650048
0.06000000000000005,-0.94,0.7747045991659112
0.08000000000000007,-0.94,0.7256975708518758
0.10000000000000009,-0.94,0.6652458583347906
0.1200000000000001,-0.94,0.5943028212331526
0.14000000000000012,-0.94,0.513987273621371
0.15999999999999992,-0.94,0.4255658396634659
0.17999999999999994,-0.94,0.3304329781933577
0.19999999999999996,-0.94,0.230088991266047
0.21999999999999997,-0.94,0.12611636349796973
0.24,-0.94,0.020154805339265645
0.26,-0.94,-0.08612460613953585
0.28,-0.94,-0.1910457811311709
0.30000000000000004,-0.94,-0.2929540500291496
0.32000000000000006,-0.94,-0.3902422585559018
0.3400000000000001,-0.94,-0.48137611354580184
0.3600000000000001,-0.94,-0.5649183796649332
0.3800000000000001,-0.94,-0.6395515454708658
0.40000000000000013,-0.94,-0.7040986013551483
0.41999999999999993,-0.94,-0.7575416016879432
0.43999999999999995,-0.94,-0.7990377184287017
0.45999999999999996,-0.94,-0.827932533027843
0.48,-0.94,-0.8437703569982136
0.5,-0.94,-0.8463014183947425
0.52,-0.94,-0.8354858008672245
0.54,-0.94,-0.8114940731650048
0.56,-0.94,-0.7747045991659112
0.5800000000000001,-0.94,-0.7256975708518758
0.6000000000000001,-0.94,-0.6652458583347907
0.6200000000000001,-0.94,-0.5943028212331525
0.6400000000000001,-0.94,-0.5139872736213709
0.6600000000000001,-0.94,-0.42556583966346595
0.6799999999999999,-0.94,-0.3304329781933579
0.7,-0.94,-0.2300889912660472
0.72,-0.94,-0.12611636349796995
0.74,-0.94,-0.0201548053392658
0.76,-0.94,0.08612460613953565
0.78,-0.94,0.19104578113117077
0.8,-0.94,0.2929540500291494
0.8200000000000001,-0.94,0.3902422585559017
0.8400000000000001,-0.94,0.4813761135458018
0.8600000000000001,-0.94,0.564918379664933
0.8800000000000001,-0.94,0.6395515454708657
0.9000000000000001,-0.94,0.7040986013551482
0.9199999999999999,-0.94,0.7575416016879435
0.94,-0.94,0.7990377184287017
0.96,-0.94,0.8279325330278431
0.98,-0.94,0.8437703569982135
1.0,-0.94,0.8463014183947425

-1.0,-0.92,0.7976321164558293
-0.98,-0.92,0.7859216726380903
-0.96,-0.92,0.7618167745559982
-0.94,-0.92,0.7256975708518758
-0.92,-0.92,0.6781336829447037
-0.9,-0.92,0.6198752217600673
-0.88,-0.92,0.5518409580327662
-0.86,-0.92,0.4751038327434792
-0.84,-0.92,0.3908740361985545
-0.8200000000000001,-0.92,0.3004799226059473
-0.8,-0.92,0.20534706113583912
-0.78,-0.92,0.10697575384323035
-0.76,-0.92,0.006917375008295922
-0.74,-0.92,-0.09325009496275886
-0.72,-0.92,-0.1919469552313443
-0.7,-0.92,-0.2876166973523782
-0.6799999999999999,-0.92,-0.3787505523422782
-0.6599999999999999,-0.92,-0.4639112848671277
-0.64,-0.92,-0.5417558593024537
-0.62,-0.92,-0.6110566202073167
-0.6,-0.92,-0.6707206531839789
-0.5800000000000001,-0.92,-0.7198070207908327
-0.56,-0.92,-0.7575416016879432
-0.54,-0.92,-0.7833292989930172
-0.52,-0.92,-0.7967634253147298
-0.5,-0.92,-0.7976321164558292
-0.48,-0.92,-0.7859216726380901
-0.45999999999999996,-0.92,-0.761816774555998
-0.43999999999999995,-0.92,-0.7256975708518759
-0.42000000000000004,-0.92,-0.6781336829447037
-0.4,-0.92,-0.6198752217600674
-0.38,-0.92,-0.5518409580327663
-0.36,-0.92,-0.47510383274347917
-0.33999999999999997,-0.92,-0.3908740361985545
-0.31999999999999995,-0.92,-0.3004799226059472
-0.29999999999999993,-0.92,-0.20534706113583898
-0.28,-0.92,-0.1069757538432302
-0.26,-0.92,-0.006917375008295842
-0.24,-0.92,0.09325009496275888
-0.21999999999999997,-0.92,0.19194695523134422
-0.19999999999999996,-0.92,0.28761669735237816
-0.17999999999999994,-0.92,0.3787505523422782
-0.16000000000000003,-0.92,0.46391128486712757
-0.14,-0.92,0.5417558593024537
-0.12,-0.92,0.6110566202073165
-0.09999999999999998,-0.92,0.6707206531839788
-0.07999999999999996,-0.92,0.7198070207908327
-0.05999999999999994,-0.92,0.757541601687943
-0.040000000000000036,-0.92,0.7833292989930173
-0.020000000000000018,-0.92,0.7967634253147297
0.0,-0.92,0.7976321164558294
0.020000000000000018,-0.92,0.78592167263809
0.040000000000000036,-0.92,0.7618167745559979
0.06000000000000005,-0.92,0.7256975708518758
0.08000000000000007,-0.92,0.6781336829447037
0.10000000000000009,-0.92,0.6198752217600673
0.1200000000000001,-0.92,0.5518409580327661
0.14000000000000012,-0.92,0.475103832743479
0.15999999999999992,-0.92,0.39087403619855426
0.17999999999999994,-0.92,0.30047992260594697
0.19999999999999996,-0.92,0.2053470611358389
0.21999999999999997,-0.92,0.10697575384323016
0.24,-0.92,0.006917375008295842
0.26,-0.92,-0.09325009496275886
0.28,-0.92,-0.19194695523134422
0.30000000000000004,-0.92,-0.28761669735237816
0.32000000000000006,-0.92,-0.3787505523422782
0.3400000000000001,-0.92,-0.4639112848671278
0.3600000000000001,-0.92,-0.5417558593024537
0.3800000000000001,-0.92,-0.6110566202073168
0.40000000000000013,-0.92,-0.6707206531839787
0.41999999999999993,-0.92,-0.7198070207908327
0.43999999999999995,-0.92,-0.757541601687943
0.45999999999999996,-0.92,-0.7833292989930172
0.48,-0.92,-0.7967634253147295
0.5,-0.92,-0.7976321164558293
0.52,-0.92,-0.7859216726380901
0.54,-0.92,-0.7618167745559979
0.56,-0.92,-0.7256975708518757
0.5800000000000001,-0.92,-0.6781336829447038
0.6000000000000001,-0.92,-0.6198752217600672
0.6200000000000001,-0.92,-0.551840958032766
0.6400000000000001,-0.92,-0.475103832743479
0.6600000000000001,-0.92,-0.3908740361985543
0.6799999999999999,-0.92,-0.30047992260594725
0.7,-0.92,-0.2053470611358391
0.72,-0.92,-0.10697575384323033
0.74,-0.92,-0.006917375008296023
0.76,-0.92,0.09325009496275873
0.78,-0.92,0.1919469552313441
0.8,-0.92,0.28761669735237805
0.8200000000000001,-0.92,0.3787505523422781
0.8400000000000001,-0.92,0.46391128486712757
0.8600000000000001,-0.92,0.5417558593024536
0.8800000000000001,-0.92,0.6110566202073167
0.9000000000000001,-0.92,0.670720653183979
0.9199999999999999,-0.92,0.7198070207908326
0.94,-0.92,0.7575416016879432
0.96,-0.92,0.7833292989930171
0.98,-0.92,0.7967634253147297
1.0,-0.92,0.7976321164558293

-1.0,-0.9,0.7363836795580774
-0.98,-0.9,0.7239630901446029
-0.96,-0.9,0.7001251703249611
-0.94,-0.9,0.6652458583347907
-0.92,-0.9,0.6198752217600674
-0.9,-0.9,0.5647287826426793
-0.88,-0.9,0.500676233270394
-0.86,-0.9,0.42872772060994974
-0.84,-0.9,0.35001791568596036
-0.8200000000000001,-0.9,0.26578811914103573
-0.8,-0.9,0.17736668518313048
-0.78,-0.9,0.08614807264616525
-0.76,-0.9,-0.006429146458794257
-0.74,-0.9,-0.09890497408351256
-0.72,-0.9,-0.1898210111839662
-0.7,-0.9,-0.27774345754447294
-0.6799999999999999,-0.9,-0.3612857236636041
-0.6599999999999999,-0.9,-0.4391302980989302
-0.64,-0.9,-0.5100495254095112
-0.62,-0.9,-0.5729249670155669
-0.6,-0.9,-0.6267650396430011
-0.5800000000000001,-0.9,-0.6707206531839787
-0.56,-0.9,-0.7040986013551481
-0.54,-0.9,-0.72637249397483
-0.52,-0.9,-0.737191058450633
-0.5,-0.9,-0.736383679558077
-0.48,-0.9,-0.7239630901446028
-0.45999999999999996,-0.9,-0.7001251703249611
-0.43999999999999995,-0.9,-0.6652458583347906
-0.42000000000000004,-0.9,-0.6198752217600674
-0.4,-0.9,-0.5647287826426793
-0.38,-0.9,-0.5006762332703939
-0.36,-0.9,-0.4287277206099498
-0.33999999999999997,-0.9,-0.35001791568596036
-0.31999999999999995,-0.9,-0.26578811914103556
-0.29999999999999993,-0.9,-0.17736668518313034
-0.28,-0.9,-0.08614807264616509
-0.26,-0.9,0.006429146458794299
-0.24,-0.9,0.09890497408351256
-0.21999999999999997,-0.9,0.18982101118396616
-0.19999999999999996,-0.9,0.27774345754447294
-0.17999999999999994,-0.9,0.361285723663604
-0.16000000000000003,-0.9,0.4391302980989301
-0.14,-0.9,0.5100495254095112
-0.12,-0.9,0.5729249670155667
-0.09999999999999998,-0.9,0.626765039643001
-0.07999999999999996,-0.9,0.6707206531839787
-0.05999999999999994,-0.9,0.7040986013551482
-0.040000000000000036,-0.9,0.7263724939748297
-0.020000000000000018,-0.9,0.7371910584506332
0.0,-0.9,0.7363836795580772
0.020000000000000018,-0.9,0.7239630901446028
0.040000000000000036,-0.9,0.700125170324961
0.06000000000000005,-0.9,0.6652458583347904
0.08000000000000007,-0.9,0.6198752217600673
0.10000000000000009,-0.9,0.5647287826426792
0.1200000000000001,-0.9,0.5006762332703938
0.14000000000000012,-0.9,0.42872772060994957
0.15999999999999992,-0.9,0.35001791568596013
0.17999999999999994,-0.9,0.26578811914103545
0.19999999999999996,-0.9,0.17736668518313026
0.21999999999999997,-0.9,0.08614807264616509
0.24,-0.9,-0.006429146458794306
0.26,-0.9,-0.09890497408351255
0.28,-0.9,-0.18982101118396613
0.30000000000000004,-0.9,-0.2777434575444728
0.32000000000000006,-0.9,-0.3612857236636042
0.3400000000000001,-0.9,-0.4391302980989302
0.3600000000000001,-0.9,-0.5100495254095113
0.3800000000000001,-0.9,-0.5729249670155667
0.40000000000000013,-0.9,-0.6267650396430011
0.41999999999999993,-0.9,-0.6707206531839788
0.43999999999999995,-0.9,-0.704098601355148
0.45999999999999996,-0.9,-0.7263724939748297
0.48,-0.9,-0.7371910584506332
0.5,-0.9,-0.7363836795580772
0.52,-0.9,-0.7239630901446028
0.54,-0.9,-0.700125170324961
0.56,-0.9,-0.6652458583347906
0.5800000000000001,-0.9,-0.6198752217600672
0.6000000000000001,-0.9,-0.564728782642679
0.6200000000000001,-0.9,-0.5006762332703938
0.6400000000000001,-0.9,-0.42872772060994957
0.6600000000000001,-0.9,-0.3500179156859603
0.6799999999999999,-0.9,-0.2657881191410356
0.7,-0.9,-0.1773666851831304
0.72,-0.9,-0.08614807264616525
0.74,-0.9,0.006429146458794139
0.76,-0.9,0.09890497408351244
0.78,-0.9,0.18982101118396602
0.8,-0.9,0.2777434575444728
0.8200000000000001,-0.9,0.361285723663604
0.8400000000000001,-0.9,0.4391302980989301
0.8600000000000001,-0.9,0.5100495254095113
0.8800000000000001,-0.9,0.5729249670155669
0.9000000000000001,-0.9,0.6267650396430009
0.9199999999999999,-0.9,0.6707206531839788
0.94,-0.9,0.7040986013551481
0.96,-0.9,0.7263724939748297
0.98,-0.9,0.7371910584506332
1.0,-0.9,0.7363836795580774

-1.0,-0.88,0.6635220321394066
-0.98,-0.88,0.6505871772449481
-0.96,-0.88,0.6273921739233955
-0.94,-0.88,0.5943028212331528
-0.92,-0.88,0.5518409580327662
-0.9,-0.88,0.500676233270394
-0.88,-0.88,0.44161554521986285
-0.86,-0.88,0.3755903162128751
-0.84,-0.88,0.3036418035524309
-0.8200000000000001,-0.88,0.2269046782631437
-0.8,-0.88,0.14658913065136192
-0.78,-0.88,0.06396178488110592
-0.76,-0.88,-0.019674276445643277
-0.74,-0.88,-0.10300006268000164
-0.72,-0.88,-0.1847014763966413
-0.7,-0.88,-0.2634900374951921
-0.6799999999999999,-0.88,-0.3381232033011249
-0.6599999999999999,-0.88,-0.40742396420598775
-0.64,-0.88,-0.4702994058120433
-0.62,-0.88,-0.5257579448451958
-0.6,-0.88,-0.5729249670155668
-0.5800000000000001,-0.88,-0.6110566202073167
-0.56,-0.88,-0.6395515454708655
-0.54,-0.88,-0.6579603608127642
-0.52,-0.88,-0.6659927482181773
-0.5,-0.88,-0.6635220321394064
-0.48,-0.88,-0.6505871772449481
-0.45999999999999996,-0.88,-0.6273921739233953
-0.43999999999999995,-0.88,-0.5943028212331528
-0.42000000000000004,-0.88,-0.5518409580327663
-0.4,-0.88,-0.5006762332703939
-0.38,-0.88,-0.4416155452198629
-0.36,-0.88,-0.37559031621287514
-0.33999999999999997,-0.88,-0.30364180355243087
-0.31999999999999995,-0.88,-0.22690467826314353
-0.29999999999999993,-0.88,-0.1465891306513617
-0.28,-0.88,-0.06396178488110585
-0.26,-0.88,0.019674276445643332
-0.24,-0.88,0.10300006268000166
-0.21999999999999997,-0.88,0.18470147639664133
-0.19999999999999996,-0.88,0.263490037495192
-0.17999999999999994,-0.88,0.3381232033011248
-0.16000000000000003,-0.88,0.4074239642059877
-0.14,-0.88,0.47029940581204316
-0.12,-0.88,0.5257579448451957
-0.09999999999999998,-0.88,0.5729249670155667
-0.07999999999999996,-0.88,0.6110566202073165
-0.05999999999999994,-0.88,0.6395515454708653
-0.040000000000000036,-0.88,0.6579603608127642
-0.020000000000000018,-0.88,0.6659927482181776
0.0,-0.88,0.6635220321394065
0.020000000000000018,-0.88,0.6505871772449481
0.040000000000000036,-0.88,0.6273921739233953
0.06000000000000005,-0.88,0.5943028212331528
0.08000000000000007,-0.88,0.5518409580327662
0.10000000000000009,-0.88,0.5006762332703938
0.1200000000000001,-0.88,0.4416155452198628
0.14000000000000012,-0.88,0.375590316212875
0.15999999999999992,-0.88,0.30364180355243076
0.17999999999999994,-0.88,0.22690467826314345
0.19999999999999996,-0.88,0.14658913065136167
0.21999999999999997,-0.88,0.0639617848811058
0.24,-0.88,-0.01967427644564333
0.26,-0.88,-0.10300006268000161
0.28,-0.88,-0.18470147639664125
0.30000000000000004,-0.88,-0.26349003749519206
0.32000000000000006,-0.88,-0.3381232033011249
0.3400000000000001,-0.88,-0.40742396420598775
0.3600000000000001,-0.88,-0.47029940581204316
0.3800000000000001,-0.88,-0.5257579448451958
0.40000000000000013,-0.88,-0.5729249670155668
0.41999999999999993,-0.88,-0.6110566202073164
0.43999999999999995,-0.88,-0.6395515454708653
0.45999999999999996,-0.88,-0.6579603608127643
0.48,-0.88,-0.6659927482181776
0.5,-0.88,-0.6635220321394065
0.52,-0.88,-0.650587177244948
0.54,-0.88,-0.6273921739233954
0.56,-0.88,-0.5943028212331526
0.5800000000000001,-0.88,-0.5518409580327661
0.6000000000000001,-0.88,-0.5006762332703938
0.6200000000000001,-0.88,-0.44161554521986274
0.6400000000000001,-0.88,-0.375590316212875
0.6600000000000001,-0.88,-0.3036418035524308
0.6799999999999999,-0.88,-0.22690467826314356
0.7,-0.88,-0.14658913065136184
0.72,-0.88,-0.06396178488110599
0.74,-0.88,0.019674276445643207
0.76,-0.88,0.10300006268000152
0.78,-0.88,0.18470147639664117
0.8,-0.88,0.263490037495192
0.8200000000000001,-0.88,0.3381232033011248
0.8400000000000001,-0.88,0.4074239642059878
0.8600000000000001,-0.88,0.4702994058120434
0.8800000000000001,-0.88,0.5257579448451956
0.9000000000000001,-0.88,0.5729249670155667
0.9199999999999999,-0.88,0.6110566202073167
0.94,-0.88,0.6395515454708655
0.96,-0.88,0.6579603608127642
0.98,-0.88,0.6659927482181777
1.0,-0.88,0.6635220321394066

-1.0,-0.86,0.5801962459050483
-0.98,-0.86,0.5669511159181991
-0.96,-0.86,0.5447648281531399
-0.94,-0.86,0.5139872736213712
-0.92,-0.86,0.4751038327434792
-0.9,-0.86,0.4287277206099497
-0.88,-0.86,0.3755903162128751
-0.86,-0.86,0.31652962816234403
-0.84,-0.86,0.2524770787900585
-0.8200000000000001,-0.86,0.18444281506275728
-0.8,-0.86,0.11349977796111918
-0.78,-0.86,0.040766781559553406
-0.76,-0.86,-0.03260913134010151
-0.74,-0.86,-0.10547077875877213
-0.72,-0.86,-0.1766690889912276
-0.7,-0.86,-0.24508122215329328
-0.6799999999999999,-0.86,-0.3096282780375758
-0.6599999999999999,-0.86,-0.36929231101423804
-0.64,-0.86,-0.42313238364167216
-0.62,-0.86,-0.47029940581204327
-0.6,-0.86,-0.5100495254095114
-0.5800000000000001,-0.86,-0.5417558593024537
-0.56,-0.86,-0.5649183796649327
-0.54,-0.86,-0.5791717997142133
-0.52,-0.86,-0.5842913345015377
-0.5,-0.86,-0.5801962459050483
-0.48,-0.86,-0.566951115918199
-0.45999999999999996,-0.86,-0.5447648281531399
-0.43999999999999995,-0.86,-0.5139872736213711
-0.42000000000000004,-0.86,-0.47510383274347917
-0.4,-0.86,-0.42872772060994974
-0.38,-0.86,-0.37559031621287514
-0.36,-0.86,-0.31652962816234403
-0.33999999999999997,-0.86,-0.2524770787900583
-0.31999999999999995,-0.86,-0.1844428150627571
-0.29999999999999993,-0.86,-0.1134997779611191
-0.28,-0.86,-0.040766781559553295
-0.26,-0.86,0.03260913134010154
-0.24,-0.86,0.10547077875877214
-0.21999999999999997,-0.86,0.17666908899122755
-0.19999999999999996,-0.86,0.2450812221532932
-0.17999999999999994,-0.86,0.30962827803757575
-0.16000000000000003,-0.86,0.36929231101423793
-0.14,-0.86,0.4231323836416721
-0.12,-0.86,0.47029940581204327
-0.09999999999999998,-0.86,0.5100495254095113
-0.07999999999999996,-0.86,0.5417558593024535
-0.05999999999999994,-0.86,0.5649183796649329
-0.040000000000000036,-0.86,0.5791717997142134
-0.020000000000000018,-0.86,0.5842913345015377
0.0,-0.86,0.5801962459050484
0.020000000000000018,-0.86,0.566951115918199
0.040000000000000036,-0.86,0.5447648281531399
0.06000000000000005,-0.86,0.5139872736213712
0.08000000000000007,-0.86,0.47510383274347917
0.10000000000000009,-0.86,0.42872772060994974
0.1200000000000001,-0.86,0.37559031621287503
0.14000000000000012,-0.86,0.3165296281623439
0.15999999999999992,-0.86,0.25247707879005826
0.17999999999999994,-0.86,0.18444281506275706
0.19999999999999996,-0.86,0.11349977796111901
0.21999999999999997,-0.86,0.040766781559553295
0.24,-0.86,-0.032609131340101516
0.26,-0.86,-0.10547077875877209
0.28,-0.86,-0.17666908899122757
0.30000000000000004,-0.86,-0.24508122215329325
0.32000000000000006,-0.86,-0.30962827803757575
0.3400000000000001,-0.86,-0.369292311014238
0.3600000000000001,-0.86,-0.4231323836416722
0.3800000000000001,-0.86,-0.47029940581204327
0.40000000000000013,-0.86,-0.5100495254095113
0.41999999999999993,-0.86,-0.5417558593024535
0.43999999999999995,-0.86,-0.5649183796649327