TITLE = "Solution" 
VARIABLES = "x", "y", "sol" 
ZONE STRANDID=1, SOLUTIONTIME= 0.3900000000000002, I= 101, J =101, DATAPACKING=POINT 
-1.0,-1.0,0.2734931530238134
-0.98,-1.0,0.3328931965351839
-0.96,-1.0,0.38704331547643817
-0.94,-1.0,0.4350895301241598
-0.92,-1.0,0.47627412297193644
-0.9,-1.0,0.5099475883880749
-0.88,-1.0,0.5355788757074103
-0.86,-1.0,0.5527637642175272
-0.84,-1.0,0.5612312379608664
-0.8200000000000001,-1.0,0.5608477598182718
-0.8,-1.0,0.5516193774691316
-0.78,-1.0,0.5336916280158596
-0.76,-1.0,0.5073472427768524
-0.74,-1.0,0.47300168844470214
-0.72,-1.0,0.43119661492826616
-0.7,-1.0,0.38259131321003936
-0.6799999999999999,-1.0,0.3279523179335179
-0.6599999999999999,-1.0,0.2681413186939662
-0.64,-1.0,0.20410157067875107
-0.62,-1.0,0.13684301896956338
-0.6,-1.0,0.06742637110516864
-0.5800000000000001,-1.0,-0.0030536309101163953
-0.56,-1.0,-0.07348547534179821
-0.54,-1.0,-0.14275840992924468
-0.52,-1.0,-0.20977995911236666
-0.5,-1.0,-0.2734931530238134
-0.48,-1.0,-0.332893196535184
-0.45999999999999996,-1.0,-0.3870433154764383
-0.43999999999999995,-1.0,-0.4350895301241598
-0.42000000000000004,-1.0,-0.47627412297193633
-0.4,-1.0,-0.5099475883880751
-0.38,-1.0,-0.5355788757074103
-0.36,-1.0,-0.5527637642175273
-0.33999999999999997,-1.0,-0.5612312379608664
-0.31999999999999995,-1.0,-0.5608477598182718
-0.29999999999999993,-1.0,-0.5516193774691317
-0.28,-1.0,-0.5336916280158596
-0.26,-1.0,-0.5073472427768526
-0.24,-1.0,-0.47300168844470214
-0.21999999999999997,-1.0,-0.43119661492826616
-0.19999999999999996,-1.0,-0.38259131321003936
-0.17999999999999994,-1.0,-0.3279523179335179
-0.16000000000000003,-1.0,-0.26814131869396607
-0.14,-1.0,-0.20410157067875098
-0.12,-1.0,-0.13684301896956327
-0.09999999999999998,-1.0,-0.06742637110516855
-0.07999999999999996,-1.0,0.0030536309101164335
-0.05999999999999994,-1.0,0.07348547534179818
-0.040000000000000036,-1.0,0.14275840992924466
-0.020000000000000018,-1.0,0.20977995911236652
0.0,-1.0,0.2734931530238134
0.020000000000000018,-1.0,0.3328931965351839
0.040000000000000036,-1.0,0.3870433154764381
0.06000000000000005,-1.0,0.4350895301241597
0.08000000000000007,-1.0,0.4762741229719362
0.10000000000000009,-1.0,0.509947588388075
0.1200000000000001,-1.0,0.5355788757074103
0.14000000000000012,-1.0,0.552763764217527
0.15999999999999992,-1.0,0.5612312379608662
0.17999999999999994,-1.0,0.5608477598182718
0.19999999999999996,-1.0,0.5516193774691314
0.21999999999999997,-1.0,0.5336916280158596
0.24,-1.0,0.5073472427768524
0.26,-1.0,0.4730016884447019
0.28,-1.0,0.43119661492826616
0.30000000000000004,-1.0,0.38259131321003936
0.32000000000000006,-1.0,0.32795231793351787
0.3400000000000001,-1.0,0.26814131869396607
0.3600000000000001,-1.0,0.2041015706787509
0.3800000000000001,-1.0,0.13684301896956325
0.40000000000000013,-1.0,0.06742637110516853
0.41999999999999993,-1.0,-0.00305363091011643
0.43999999999999995,-1.0,-0.07348547534179815
0.45999999999999996,-1.0,-0.14275840992924466
0.48,-1.0,-0.20977995911236663
0.5,-1.0,-0.27349315302381333
0.52,-1.0,-0.33289319653518396
0.54,-1.0,-0.3870433154764383
0.56,-1.0,-0.43508953012415963
0.5800000000000001,-1.0,-0.47627412297193616
0.6000000000000001,-1.0,-0.509947588388075
0.6200000000000001,-1.0,-0.5355788757074103
0.6400000000000001,-1.0,-0.5527637642175269
0.6600000000000001,-1.0,-0.5612312379608663
0.6799999999999999,-1.0,-0.5608477598182718
0.7,-1.0,-0.5516193774691316
0.72,-1.0,-0.5336916280158596
0.74,-1.0,-0.5073472427768524
0.76,-1.0,-0.473001688444702
0.78,-1.0,-0.43119661492826616
0.8,-1.0,-0.3825913132100393
0.8200000000000001,-1.0,-0.32795231793351787
0.8400000000000001,-1.0,-0.26814131869396607
0.8600000000000001,-1.0,-0.20410157067875098
0.8800000000000001,-1.0,-0.13684301896956338
0.9000000000000001,-1.0,-0.06742637110516868
0.9199999999999999,-1.0,0.0030536309101163173
0.94,-1.0,0.07348547534179813
0.96,-1.0,0.14275840992924457
0.98,-1.0,0.20977995911236658
1.0,-1.0,0.2734931530238134

-1.0,-0.98,0.3328931965351839
-0.98,-0.98,0.3985790700813324
-0.96,-0.98,0.45797911359270344
-0.94,-0.98,0.5101565528992561
-0.92,-0.98,0.5542885186138342
-0.9,-0.98,0.5896790232739612
-0.88,-0.98,0.6157699374798836
-0.86,-0.98,0.6321497919286174
-0.84,-0.98,0.6385602665306553
-0.8200000000000001,-0.98,0.6349002642720917
-0.8,-0.98,0.6212275055749235
-0.78,-0.98,0.5977576180115153
-0.76,-0.98,0.5648607357289729
-0.74,-0.98,0.5230556622125367
-0.72,-0.98,0.47300168844470203
-0.7,-0.98,0.41548819549258176
-0.6799999999999999,-0.98,0.3514222054969261
-0.6599999999999999,-0.98,0.2818140773911342
-0.64,-0.98,0.20776157293731404
-0.62,-0.98,0.13043254436752477
-0.6,-0.98,0.051046516656434296
-0.5800000000000001,-0.98,-0.029144545116039106
-0.56,-0.98,-0.1088759800019252
-0.54,-0.98,-0.1868903756438231
-0.52,-0.98,-0.26195739841891913
-0.5,-0.98,-0.332893196535184
-0.48,-0.98,-0.39857907008133253
-0.45999999999999996,-0.98,-0.4579791135927033
-0.43999999999999995,-0.98,-0.5101565528992561
-0.42000000000000004,-0.98,-0.5542885186138342
-0.4,-0.98,-0.5896790232739612
-0.38,-0.98,-0.6157699374798836
-0.36,-0.98,-0.6321497919286174
-0.33999999999999997,-0.98,-0.6385602665306555
-0.31999999999999995,-0.98,-0.6349002642720918
-0.29999999999999993,-0.98,-0.6212275055749237
-0.28,-0.98,-0.5977576180115154
-0.26,-0.98,-0.5648607357289728
-0.24,-0.98,-0.5230556622125369
-0.21999999999999997,-0.98,-0.4730016884447021
-0.19999999999999996,-0.98,-0.4154881954925818
-0.17999999999999994,-0.98,-0.351422205496926
-0.16000000000000003,-0.98,-0.28181407739113407
-0.14,-0.98,-0.20776157293731395
-0.12,-0.98,-0.13043254436752466
-0.09999999999999998,-0.98,-0.05104651665643423
-0.07999999999999996,-0.98,0.0291445451160391
-0.05999999999999994,-0.98,0.10887598000192517
-0.040000000000000036,-0.98,0.18689037564382302
-0.020000000000000018,-0.98,0.2619573984189191
0.0,-0.98,0.3328931965351839
0.020000000000000018,-0.98,0.39857907008133237
0.040000000000000036,-0.98,0.4579791135927033
0.06000000000000005,-0.98,0.5101565528992559
0.08000000000000007,-0.98,0.5542885186138341
0.10000000000000009,-0.98,0.589679023273961
0.1200000000000001,-0.98,0.6157699374798834
0.14000000000000012,-0.98,0.6321497919286172
0.15999999999999992,-0.98,0.6385602665306553
0.17999999999999994,-0.98,0.6349002642720916
0.19999999999999996,-0.98,0.6212275055749236
0.21999999999999997,-0.98,0.5977576180115153
0.24,-0.98,0.5648607357289726
0.26,-0.98,0.5230556622125369
0.28,-0.98,0.4730016884447021
0.30000000000000004,-0.98,0.41548819549258176
0.32000000000000006,-0.98,0.351422205496926
0.3400000000000001,-0.98,0.28181407739113407
0.3600000000000001,-0.98,0.20776157293731387
0.3800000000000001,-0.98,0.1304325443675246
0.40000000000000013,-0.98,0.05104651665643419
0.41999999999999993,-0.98,-0.029144545116039085
0.43999999999999995,-0.98,-0.10887598000192514
0.45999999999999996,-0.98,-0.18689037564382308
0.48,-0.98,-0.2619573984189191
0.5,-0.98,-0.33289319653518396
0.52,-0.98,-0.39857907008133253
0.54,-0.98,-0.4579791135927032
0.56,-0.98,-0.5101565528992559
0.5800000000000001,-0.98,-0.5542885186138343
0.6000000000000001,-0.98,-0.5896790232739612
0.6200000000000001,-0.98,-0.6157699374798833
0.6400000000000001,-0.98,-0.6321497919286172
0.6600000000000001,-0.98,-0.6385602665306553
0.6799999999999999,-0.98,-0.6349002642720917
0.7,-0.98,-0.6212275055749236
0.72,-0.98,-0.5977576180115152
0.74,-0.98,-0.5648607357289727
0.76,-0.98,-0.5230556622125369
0.78,-0.98,-0.4730016884447019
0.8,-0.98,-0.41548819549258165
0.8200000000000001,-0.98,-0.351422205496926
0.8400000000000001,-0.98,-0.2818140773911341
0.8600000000000001,-0.98,-0.20776157293731398
0.8800000000000001,-0.98,-0.13043254436752477
0.9000000000000001,-0.98,-0.05104651665643436
0.9199999999999999,-0.98,0.029144545116039023
0.94,-0.98,0.10887598000192507
0.96,-0.98,0.18689037564382302
0.98,-0.98,0.26195739841891913
1.0,-0.98,0.3328931965351839

-1.0,-0.96,0.3870433154764382
-0.98,-0.96,0.4579791135927034
-0.96,-0.96,0.5216923075041504
-0.94,-0.96,0.5771781020823779
-0.92,-0.96,0.6235614532012808
-0.9,-0.96,0.660110867705643
-0.88,-0.96,0.6862499394951684
-0.86,-0.96,0.701566439793012
-0.84,-0.96,0.7058188182398427
-0.8200000000000001,-0.96,0.6989400122873066
-0.8,-0.96,0.6810385048144753
-0.78,-0.96,0.6523966132880367
-0.76,-0.96,0.6134660374471995
-0.74,-0.96,0.5648607357289727
-0.72,-0.96,0.5073472427768523
-0.7,-0.96,0.44183258073158876
-0.6799999999999999,-0.96,0.36934995495019807
-0.6599999999999999,-0.96,0.29104245974027404
-0.64,-0.96,0.2081450510799079
-0.62,-0.96,0.12196507062418492
-0.6,-0.96,0.03386162814631697
-0.5800000000000001,-0.96,-0.05477583243537451
-0.56,-0.96,-0.14254944541806402
-0.54,-0.96,-0.22807496849159953
-0.52,-0.96,-0.3100036130666404
-0.5,-0.96,-0.3870433154764383
-0.48,-0.96,-0.4579791135927033
-0.45999999999999996,-0.96,-0.5216923075041505
-0.43999999999999995,-0.96,-0.5771781020823779
-0.42000000000000004,-0.96,-0.6235614532012808
-0.4,-0.96,-0.660110867705643
-0.38,-0.96,-0.6862499394951684
-0.36,-0.96,-0.7015664397930119
-0.33999999999999997,-0.96,-0.7058188182398427
-0.31999999999999995,-0.96,-0.698940012287307
-0.29999999999999993,-0.96,-0.6810385048144754
-0.28,-0.96,-0.6523966132880369
-0.26,-0.96,-0.6134660374471995
-0.24,-0.96,-0.5648607357289727
-0.21999999999999997,-0.96,-0.5073472427768526
-0.19999999999999996,-0.96,-0.4418325807315887
-0.17999999999999994,-0.96,-0.369349954950198
-0.16000000000000003,-0.96,-0.291042459740274
-0.14,-0.96,-0.20814505107990777
-0.12,-0.96,-0.1219650706241848
-0.09999999999999998,-0.96,-0.03386162814631697
-0.07999999999999996,-0.96,0.05477583243537451
-0.05999999999999994,-0.96,0.14254944541806394
-0.040000000000000036,-0.96,0.22807496849159947
-0.020000000000000018,-0.96,0.3100036130666404
0.0,-0.96,0.3870433154764381
0.020000000000000018,-0.96,0.4579791135927033
0.040000000000000036,-0.96,0.5216923075041502
0.06000000000000005,-0.96,0.5771781020823779
0.08000000000000007,-0.96,0.6235614532012806
0.10000000000000009,-0.96,0.6601108677056428
0.1200000000000001,-0.96,0.6862499394951681
0.14000000000000012,-0.96,0.7015664397930118
0.15999999999999992,-0.96,0.7058188182398426
0.17999999999999994,-0.96,0.6989400122873068
0.19999999999999996,-0.96,0.6810385048144754
0.21999999999999997,-0.96,0.6523966132880364
0.24,-0.96,0.6134660374471994
0.26,-0.96,0.5648607357289728
0.28,-0.96,0.5073472427768524
0.30000000000000004,-0.96,0.44183258073158865
0.32000000000000006,-0.96,0.3693499549501979
0.3400000000000001,-0.96,0.2910424597402739
0.3600000000000001,-0.96,0.20814505107990766
0.3800000000000001,-0.96,0.12196507062418474
0.40000000000000013,-0.96,0.033861628146316956
0.41999999999999993,-0.96,-0.05477583243537451
0.43999999999999995,-0.96,-0.14254944541806397
0.45999999999999996,-0.96,-0.22807496849159953
0.48,-0.96,-0.31000361306664037
0.5,-0.96,-0.3870433154764383
0.52,-0.96,-0.4579791135927032
0.54,-0.96,-0.5216923075041502
0.56,-0.96,-0.5771781020823781
0.5800000000000001,-0.96,-0.6235614532012809
0.6000000000000001,-0.96,-0.6601108677056426
0.6200000000000001,-0.96,-0.6862499394951681
0.6400000000000001,-0.96,-0.7015664397930119
0.6600000000000001,-0.96,-0.7058188182398427
0.6799999999999999,-0.96,-0.6989400122873068
0.7,-0.96,-0.6810385048144754
0.72,-0.96,-0.6523966132880367
0.74,-0.96,-0.6134660374471994
0.76,-0.96,-0.5648607357289726
0.78,-0.96,-0.5073472427768522
0.8,-0.96,-0.44183258073158865
0.8200000000000001,-0.96,-0.36934995495019796
0.8400000000000001,-0.96,-0.29104245974027393
0.8600000000000001,-0.96,-0.20814505107990786
0.8800000000000001,-0.96,-0.12196507062418493
0.9000000000000001,-0.96,-0.03386162814631705
0.9199999999999999,-0.96,0.05477583243537443
0.94,-0.96,0.14254944541806389
0.96,-0.96,0.2280749684915995
0.98,-0.96,0.3100036130666403
1.0,-0.96,0.3870433154764382

-1.0,-0.94,0.43508953012415974
-0.98,-0.94,0.510156552899256
-0.96,-0.94,0.5771781020823779
-0.94,-0.94,0.6350972078061751
-0.92,-0.94,0.6830004511741865
-0.9,-0.94,0.720132369422488
-0.88,-0.94,0.7459073700187713
-0.86,-0.94,0.7599189658063938
-0.84,-0.94,0.7619461855496631
-0.8200000000000001,-0.94,0.7519570587822261
-0.8,-0.94,0.7301091200004197
-0.78,-0.94,0.6967469242501595
-0.76,-0.94,0.6523966132880364
-0.74,-0.94,0.597757618011515
-0.72,-0.94,0.5336916280158593
-0.7,-0.94,0.46120900223446865
-0.6799999999999999,-0.94,0.3814528349749367
-0.6599999999999999,-0.94,0.2956809286389718
-0.64,-0.94,0.20524595742714485
-0.62,-0.94,0.11157413485870003
-0.6,-0.94,0.016142721532376107
-0.5800000000000001,-0.94,-0.07954327215570788
-0.56,-0.94,-0.1739748209250488
-0.54,-0.94,-0.26566268284088124
-0.52,-0.94,-0.3531608855491188
-0.5,-0.94,-0.43508953012415974
-0.48,-0.94,-0.5101565528992561
-0.45999999999999996,-0.94,-0.577178102082378
-0.43999999999999995,-0.94,-0.6350972078061751
-0.42000000000000004,-0.94,-0.6830004511741865
-0.4,-0.94,-0.7201323694224881
-0.38,-0.94,-0.7459073700187713
-0.36,-0.94,-0.7599189658063938
-0.33999999999999997,-0.94,-0.7619461855496633
-0.31999999999999995,-0.94,-0.7519570587822261
-0.29999999999999993,-0.94,-0.7301091200004202
-0.28,-0.94,-0.6967469242501594
-0.26,-0.94,-0.6523966132880364
-0.24,-0.94,-0.5977576180115153
-0.21999999999999997,-0.94,-0.5336916280158593
-0.19999999999999996,-0.94,-0.4612090022344686
-0.17999999999999994,-0.94,-0.3814528349749367
-0.16000000000000003,-0.94,-0.29568092863897155
-0.14,-0.94,-0.20524595742714466
-0.12,-0.94,-0.11157413485870003
-0.09999999999999998,-0.94,-0.01614272153237608
-0.07999999999999996,-0.94,0.07954327215570786
-0.05999999999999994,-0.94,0.17397482092504876
-0.040000000000000036,-0.94,0.26566268284088124
-0.020000000000000018,-0.94,0.35316088554911856
0.0,-0.94,0.43508953012415974
0.020000000000000018,-0.94,0.5101565528992559
0.040000000000000036,-0.94,0.5771781020823777
0.06000000000000005,-0.94,0.635097207806175
0.08000000000000007,-0.94,0.6830004511741864
0.10000000000000009,-0.94,0.7201323694224879
0.1200000000000001,-0.94,0.7459073700187713
0.14000000000000012,-0.94,0.759918965806394
0.15999999999999992,-0.94,0.7619461855496632
0.17999999999999994,-0.94,0.7519570587822262
0.19999999999999996,-0.94,0.7301091200004195
0.21999999999999997,-0.94,0.6967469242501595
0.24,-0.94,0.6523966132880366
0.26,-0.94,0.5977576180115151
0.28,-0.94,0.5336916280158591
0.30000000000000004,-0.94,0.4612090022344686
0.32000000000000006,-0.94,0.38145283497493654
0.3400000000000001,-0.94,0.2956809286389715
0.3600000000000001,-0.94,0.20524595742714458
0.3800000000000001,-0.94,0.11157413485869996
0.40000000000000013,-0.94,0.016142721532376048
0.41999999999999993,-0.94,-0.07954327215570788
0.43999999999999995,-0.94,-0.1739748209250488
0.45999999999999996,-0.94,-0.26566268284088124
0.48,-0.94,-0.35316088554911873
0.5,-0.94,-0.4350895301241597
0.52,-0.94,-0.5101565528992559
0.54,-0.94,-0.5771781020823781
0.56,-0.94,-0.6350972078061751
0.5800000000000001,-0.94,-0.6830004511741863
0.6000000000000001,-0.94,-0.7201323694224878
0.6200000000000001,-0.94,-0.7459073700187713
0.6400000000000001,-0.94,-0.7599189658063937
0.6600000000000001,-0.94,-0.7619461855496631
0.6799999999999999,-0.94,-0.7519570587822262
0.7,-0.94,-0.7301091200004197
0.72,-0.94,-0.6967469242501593
0.74,-0.94,-0.6523966132880363
0.76,-0.94,-0.5977576180115148
0.78,-0.94,-0.5336916280158592
0.8,-0.94,-0.46120900223446853
0.8200000000000001,-0.94,-0.3814528349749366
0.8400000000000001,-0.94,-0.29568092863897166
0.8600000000000001,-0.94,-0.20524595742714483
0.8800000000000001,-0.94,-0.11157413485870007
0.9000000000000001,-0.94,-0.01614272153237617
0.9199999999999999,-0.94,0.07954327215570776
0.94,-0.94,0.17397482092504876
0.96,-0.94,0.2656626828408812
0.98,-0.94,0.3531608855491187
1.0,-0.94,0.43508953012415974

-1.0,-0.92,0.47627412297193616
-0.98,-0.92,0.5542885186138342
-0.96,-0.92,0.6235614532012809
-0.94,-0.92,0.6830004511741865
-0.92,-0.92,0.7316681240273822
-0.9,-0.92,0.7687969534873149
-0.88,-0.92,0.7938013957337137
-0.86,-0.92,0.8062871157754224
-0.84,-0.92,0.806057206348777
-0.8200000000000001,-0.92,0.793115293262776
-0.8,-0.92,0.7676654782179101
-0.78,-0.92,0.7301091200004194
-0.76,-0.92,0.6810385048144748
-0.74,-0.92,0.621227505574923
-0.72,-0.92,0.5516193774691311
-0.7,-0.92,0.47331188225920723
-0.6799999999999999,-0.92,0.3875399759232423
-0.6599999999999999,-0.92,0.2956563326618075
-0.64,-0.92,0.19911001241776388
-0.62,-0.92,0.09942360833533609
-0.6,-0.92,-0.0018307654433247379
-0.5800000000000001,-0.92,-0.10305626695729808
-0.56,-0.92,-0.20265650957852507
-0.54,-0.92,-0.29906073798256805
-0.52,-0.92,-0.3907485998984006
-0.5,-0.92,-0.4762741229719364
-0.48,-0.92,-0.5542885186138344
-0.45999999999999996,-0.92,-0.6235614532012809
-0.43999999999999995,-0.92,-0.6830004511741864
-0.42000000000000004,-0.92,-0.7316681240273825
-0.4,-0.92,-0.7687969534873149
-0.38,-0.92,-0.7938013957337137
-0.36,-0.92,-0.8062871157754228
-0.33999999999999997,-0.92,-0.8060572063487771
-0.31999999999999995,-0.92,-0.7931152932627762
-0.29999999999999993,-0.92,-0.7676654782179099
-0.28,-0.92,-0.7301091200004195
-0.26,-0.92,-0.6810385048144751
-0.24,-0.92,-0.6212275055749231
-0.21999999999999997,-0.92,-0.5516193774691313
-0.19999999999999996,-0.92,-0.4733118822592073
-0.17999999999999994,-0.92,-0.38753997592324213
-0.16000000000000003,-0.92,-0.29565633266180724
-0.14,-0.92,-0.19911001241776383
-0.12,-0.92,-0.09942360833533602
-0.09999999999999998,-0.92,0.0018307654433247483
-0.07999999999999996,-0.92,0.10305626695729811
-0.05999999999999994,-0.92,0.20265650957852507
-0.040000000000000036,-0.92,0.2990607379825679
-0.020000000000000018,-0.92,0.3907485998984005
0.0,-0.92,0.4762741229719361
0.020000000000000018,-0.92,0.5542885186138342
0.040000000000000036,-0.92,0.6235614532012808
0.06000000000000005,-0.92,0.6830004511741865
0.08000000000000007,-0.92,0.7316681240273822
0.10000000000000009,-0.92,0.768796953487315
0.1200000000000001,-0.92,0.7938013957337138
0.14000000000000012,-0.92,0.8062871157754227
0.15999999999999992,-0.92,0.8060572063487772
0.17999999999999994,-0.92,0.7931152932627757
0.19999999999999996,-0.92,0.7676654782179101
0.21999999999999997,-0.92,0.7301091200004194
0.24,-0.92,0.6810385048144749
0.26,-0.92,0.621227505574923
0.28,-0.92,0.5516193774691311
0.30000000000000004,-0.92,0.47331188225920706
0.32000000000000006,-0.92,0.3875399759232421
0.3400000000000001,-0.92,0.2956563326618071
0.3600000000000001,-0.92,0.19911001241776372
0.3800000000000001,-0.92,0.09942360833533594
0.40000000000000013,-0.92,-0.0018307654433247795
0.41999999999999993,-0.92,-0.10305626695729811
0.43999999999999995,-0.92,-0.20265650957852505
0.45999999999999996,-0.92,-0.299060737982568
0.48,-0.92,-0.3907485998984006
0.5,-0.92,-0.4762741229719362
0.52,-0.92,-0.5542885186138343
0.54,-0.92,-0.6235614532012809
0.56,-0.92,-0.6830004511741865
0.5800000000000001,-0.92,-0.7316681240273821
0.6000000000000001,-0.92,-0.7687969534873148
0.6200000000000001,-0.92,-0.7938013957337134
0.6400000000000001,-0.92,-0.8062871157754227
0.6600000000000001,-0.92,-0.8060572063487771
0.6799999999999999,-0.92,-0.793115293262776
0.7,-0.92,-0.7676654782179099
0.72,-0.92,-0.7301091200004194
0.74,-0.92,-0.6810385048144748
0.76,-0.92,-0.6212275055749229
0.78,-0.92,-0.551619377469131
0.8,-0.92,-0.4733118822592072
0.8200000000000001,-0.92,-0.38753997592324224
0.8400000000000001,-0.92,-0.2956563326618074
0.8600000000000001,-0.92,-0.19911001241776383
0.8800000000000001,-0.92,-0.0994236083353361
0.9000000000000001,-0.92,0.0018307654433246407
0.9199999999999999,-0.92,0.10305626695729803
0.94,-0.92,0.202656509578525
0.96,-0.92,0.2990607379825679
0.98,-0.92,0.3907485998984005
1.0,-0.92,0.47627412297193616

-1.0,-0.9,0.5099475883880749
-0.98,-0.9,0.5896790232739612
-0.96,-0.9,0.6601108677056428
-0.94,-0.9,0.720132369422488
-0.92,-0.9,0.7687969534873149
-0.9,-0.9,0.8053371503386081
-0.88,-0.9,0.8291766992439662
-0.86,-0.9,0.8399396362760968
-0.84,-0.9,0.8374562234885352
-0.8200000000000001,-0.9,0.8217656257844608
-0.8,-0.9,0.7931152932627754
-0.78,-0.9,0.7519570587822252
-0.76,-0.9,0.698940012287306
-0.74,-0.9,0.6349002642720909
-0.72,-0.9,0.5608477598182707
-0.7,-0.9,0.4779503511579047
-0.6799999999999999,-0.9,0.387515379946078
-0.6599999999999999,-0.9,0.29096905970203446
-0.64,-0.9,0.18983398356999878
-0.62,-0.9,0.08570511211573917
-0.6,-0.9,-0.01977538015433803
-0.5800000000000001,-0.9,-0.12494400286614187
-0.56,-0.9,-0.22814218401481728
-0.54,-0.9,-0.32774242663604436
-0.52,-0.9,-0.4221739754053855
-0.5,-0.9,-0.509947588388075
-0.48,-0.9,-0.5896790232739612
-0.45999999999999996,-0.9,-0.6601108677056429
-0.43999999999999995,-0.9,-0.7201323694224881
-0.42000000000000004,-0.9,-0.7687969534873149
-0.4,-0.9,-0.8053371503386079
-0.38,-0.9,-0.8291766992439665
-0.36,-0.9,-0.8399396362760969
-0.33999999999999997,-0.9,-0.8374562234885353
-0.31999999999999995,-0.9,-0.8217656257844604
-0.29999999999999993,-0.9,-0.7931152932627754
-0.28,-0.9,-0.7519570587822254
-0.26,-0.9,-0.698940012287306
-0.24,-0.9,-0.634900264272091
-0.21999999999999997,-0.9,-0.560847759818271
-0.19999999999999996,-0.9,-0.4779503511579045
-0.17999999999999994,-0.9,-0.38751537994607776
-0.16000000000000003,-0.9,-0.2909690597020344
-0.14,-0.9,-0.18983398356999867
-0.12,-0.9,-0.0857051121157391
-0.09999999999999998,-0.9,0.019775380154338072
-0.07999999999999996,-0.9,0.12494400286614188
-0.05999999999999994,-0.9,0.22814218401481717
-0.040000000000000036,-0.9,0.32774242663604425
-0.020000000000000018,-0.9,0.42217397540538526
0.0,-0.9,0.5099475883880749
0.020000000000000018,-0.9,0.5896790232739612
0.040000000000000036,-0.9,0.6601108677056429
0.06000000000000005,-0.9,0.720132369422488
0.08000000000000007,-0.9,0.7687969534873149
0.10000000000000009,-0.9,0.805337150338608
0.1200000000000001,-0.9,0.8291766992439664
0.14000000000000012,-0.9,0.839939636276097
0.15999999999999992,-0.9,0.837456223488535
0.17999999999999994,-0.9,0.8217656257844607
0.19999999999999996,-0.9,0.7931152932627754
0.21999999999999997,-0.9,0.7519570587822253
0.24,-0.9,0.6989400122873058
0.26,-0.9,0.6349002642720908
0.28,-0.9,0.5608477598182706
0.30000000000000004,-0.9,0.4779503511579045
0.32000000000000006,-0.9,0.3875153799460776
0.3400000000000001,-0.9,0.2909690597020343
0.3600000000000001,-0.9,0.18983398356999853
0.3800000000000001,-0.9,0.08570511211573904
0.40000000000000013,-0.9,-0.019775380154338107
0.41999999999999993,-0.9,-0.1249440028661419
0.43999999999999995,-0.9,-0.22814218401481728
0.45999999999999996,-0.9,-0.32774242663604436
0.48,-0.9,-0.42217397540538537
0.5,-0.9,-0.509947588388075
0.52,-0.9,-0.5896790232739613
0.54,-0.9,-0.660110867705643
0.56,-0.9,-0.7201323694224878
0.5800000000000001,-0.9,-0.7687969534873148
0.6000000000000001,-0.9,-0.8053371503386079
0.6200000000000001,-0.9,-0.8291766992439664
0.6400000000000001,-0.9,-0.8399396362760969
0.6600000000000001,-0.9,-0.8374562234885351
0.6799999999999999,-0.9,-0.8217656257844606
0.7,-0.9,-0.7931152932627754
0.72,-0.9,-0.7519570587822252
0.74,-0.9,-0.6989400122873057
0.76,-0.9,-0.6349002642720907
0.78,-0.9,-0.5608477598182707
0.8,-0.9,-0.47795035115790463
0.8200000000000001,-0.9,-0.3875153799460779
0.8400000000000001,-0.9,-0.29096905970203435
0.8600000000000001,-0.9,-0.1898339835699987
0.8800000000000001,-0.9,-0.08570511211573921
0.9000000000000001,-0.9,0.019775380154337975
0.9199999999999999,-0.9,0.1249440028661418
0.94,-0.9,0.2281421840148171
0.96,-0.9,0.32774242663604425
0.98,-0.9,0.42217397540538526
1.0,-0.9,0.5099475883880749

-1.0,-0.88,0.5355788757074103
-0.98,-0.88,0.6157699374798836
-0.96,-0.88,0.6862499394951684
-0.94,-0.88,0.7459073700187714
-0.92,-0.88,0.7938013957337138
-0.9,-0.88,0.8291766992439662
-0.88,-0.88,0.8514753908809912
-0.86,-0.88,0.8603458069570791
-0.84,-0.88,0.85564805571178
-0.8200000000000001,-0.88,0.8374562234885343
-0.8,-0.88,0.8060572063487756
-0.78,-0.88,0.7619461855496616
-0.76,-0.88,0.7058188182398412
-0.74,-0.88,0.6385602665306535
-0.72,-0.88,0.5612312379608642
-0.7,-0.88,0.47505125750514154
-0.6799999999999999,-0.88,0.3813794349366969
-0.6599999999999999,-0.88,0.28169303085426933
-0.64,-0.88,0.1775641594000098
-0.62,-0.88,0.07063499508032477
-0.6,-0.88,-0.037408125307077905
-0.5800000000000001,-0.88,-0.14486129721185723
-0.56,-0.88,-0.25002991992366114
-0.54,-0.88,-0.35125542143763466
-0.52,-0.88,-0.44694141512571867
-0.5,-0.88,-0.5355788757074103
-0.48,-0.88,-0.6157699374798836
-0.45999999999999996,-0.88,-0.6862499394951683
-0.43999999999999995,-0.88,-0.7459073700187713
-0.42000000000000004,-0.88,-0.7938013957337137
-0.4,-0.88,-0.8291766992439664
-0.38,-0.88,-0.8514753908809913
-0.36,-0.88,-0.860345806957079
-0.33999999999999997,-0.88,-0.8556480557117799
-0.31999999999999995,-0.88,-0.8374562234885343
-0.29999999999999993,-0.88,-0.8060572063487758
-0.28,-0.88,-0.7619461855496615
-0.26,-0.88,-0.7058188182398412
-0.24,-0.88,-0.6385602665306535
-0.21999999999999997,-0.88,-0.561231237960864
-0.19999999999999996,-0.88,-0.4750512575051414
-0.17999999999999994,-0.88,-0.3813794349366969
-0.16000000000000003,-0.88,-0.28169303085426917
-0.14,-0.88,-0.17756415940000972
-0.12,-0.88,-0.07063499508032467
-0.09999999999999998,-0.88,0.037408125307077954
-0.07999999999999996,-0.88,0.14486129721185717
-0.05999999999999994,-0.88,0.250029919923661
-0.040000000000000036,-0.88,0.3512554214376345
-0.020000000000000018,-0.88,0.44694141512571856
0.0,-0.88,0.5355788757074103
0.020000000000000018,-0.88,0.6157699374798835
0.040000000000000036,-0.88,0.6862499394951683
0.06000000000000005,-0.88,0.7459073700187713
0.08000000000000007,-0.88,0.7938013957337138
0.10000000000000009,-0.88,0.8291766992439664
0.1200000000000001,-0.88,0.8514753908809913
0.14000000000000012,-0.88,0.8603458069570787
0.15999999999999992,-0.88,0.8556480557117802
0.17999999999999994,-0.88,0.8374562234885342
0.19999999999999996,-0.88,0.8060572063487756
0.21999999999999997,-0.88,0.7619461855496615
0.24,-0.88,0.705818818239841
0.26,-0.88,0.6385602665306533
0.28,-0.88,0.561231237960864
0.30000000000000004,-0.88,0.47505125750514116
0.32000000000000006,-0.88,0.3813794349366968
0.3400000000000001,-0.88,0.28169303085426906
0.3600000000000001,-0.88,0.17756415940000966
0.3800000000000001,-0.88,0.07063499508032461
0.40000000000000013,-0.88,-0.037408125307077995
0.41999999999999993,-0.88,-0.14486129721185723
0.43999999999999995,-0.88,-0.25002991992366114
0.45999999999999996,-0.88,-0.3512554214376346
0.48,-0.88,-0.44694141512571856
0.5,-0.88,-0.5355788757074104
0.52,-0.88,-0.6157699374798837
0.54,-0.88,-0.6862499394951681
0.56,-0.88,-0.7459073700187713
0.5800000000000001,-0.88,-0.7938013957337136
0.6000000000000001,-0.88,-0.8291766992439664
0.6200000000000001,-0.88,-0.8514753908809912
0.6400000000000001,-0.88,-0.8603458069570789
0.6600000000000001,-0.88,-0.8556480557117799
0.6799999999999999,-0.88,-0.8374562234885343
0.7,-0.88,-0.8060572063487756
0.72,-0.88,-0.7619461855496615
0.74,-0.88,-0.7058188182398409
0.76,-0.88,-0.6385602665306532
0.78,-0.88,-0.5612312379608642
0.8,-0.88,-0.4750512575051415
0.8200000000000001,-0.88,-0.3813794349366969
0.8400000000000001,-0.88,-0.2816930308542692
0.8600000000000001,-0.88,-0.17756415940000983
0.8800000000000001,-0.88,-0.07063499508032477
0.9000000000000001,-0.88,0.03740812530707786
0.9199999999999999,-0.88,0.144861297211857
0.94,-0.88,0.250029919923661
0.96,-0.88,0.35125542143763444
0.98,-0.88,0.44694141512571844
1.0,-0.88,0.5355788757074103

-1.0,-0.86,0.5527637642175272
-0.98,-0.86,0.6321497919286175
-0.96,-0.86,0.701566439793012
-0.94,-0.86,0.759918965806394
-0.92,-0.86,0.8062871157754226
-0.9,-0.86,0.8399396362760969
-0.88,-0.86,0.8603458069570792
-0.86,-0.86,0.8671838103166741
-0.84,-0.86,0.8603458069570775
-0.8200000000000001,-0.86,0.8399396362760947
-0.8,-0.86,0.8062871157754202
-0.78,-0.86,0.7599189658063913
-0.76,-0.86,0.7015664397930091
-0.74,-0.86,0.6321497919286143
-0.72,-0.86,0.5527637642175242
-0.7,-0.86,0.4646603217396566
-0.6799999999999999,-0.86,0.36922890841333306
-0.6599999999999999,-0.86,0.26797453463467247
-0.64,-0.86,0.16249404236459544
-0.62,-0.86,0.05445092197719285
-0.6,-0.86,-0.05445092197719437
-0.5800000000000001,-0.86,-0.1624940423645971
-0.56,-0.86,-0.26797453463467447
-0.54,-0.86,-0.36922890841333533
-0.52,-0.86,-0.4646603217396593
-0.5,-0.86,-0.5527637642175273
-0.48,-0.86,-0.6321497919286173
-0.45999999999999996,-0.86,-0.7015664397930119
-0.43999999999999995,-0.86,-0.759918965806394
-0.42000000000000004,-0.86,-0.8062871157754226
-0.4,-0.86,-0.8399396362760969
-0.38,-0.86,-0.860345806957079
-0.36,-0.86,-0.8671838103166741
-0.33999999999999997,-0.86,-0.8603458069570776
-0.31999999999999995,-0.86,-0.8399396362760949
-0.29999999999999993,-0.86,-0.8062871157754202
-0.28,-0.86,-0.7599189658063913
-0.26,-0.86,-0.7015664397930091
-0.24,-0.86,-0.6321497919286143
-0.21999999999999997,-0.86,-0.552763764217524
-0.19999999999999996,-0.86,-0.4646603217396566
-0.17999999999999994,-0.86,-0.3692289084133329
-0.16000000000000003,-0.86,-0.2679745346346724
-0.14,-0.86,-0.16249404236459533
-0.12,-0.86,-0.05445092197719277
-0.09999999999999998,-0.86,0.05445092197719438
-0.07999999999999996,-0.86,0.16249404236459705
-0.05999999999999994,-0.86,0.2679745346346744
-0.040000000000000036,-0.86,0.3692289084133353
-0.020000000000000018,-0.86,0.4646603217396593
0.0,-0.86,0.5527637642175273
0.020000000000000018,-0.86,0.6321497919286174
0.040000000000000036,-0.86,0.7015664397930119
0.06000000000000005,-0.86,0.7599189658063941
0.08000000000000007,-0.86,0.8062871157754227
0.10000000000000009,-0.86,0.8399396362760969
0.1200000000000001,-0.86,0.8603458069570787
0.14000000000000012,-0.86,0.8671838103166742
0.15999999999999992,-0.86,0.8603458069570774
0.17999999999999994,-0.86,0.8399396362760948
0.19999999999999996,-0.86,0.8062871157754201
0.21999999999999997,-0.86,0.7599189658063912
0.24,-0.86,0.701566439793009
0.26,-0.86,0.6321497919286143
0.28,-0.86,0.5527637642175239
0.30000000000000004,-0.86,0.4646603217396565
0.32000000000000006,-0.86,0.3692289084133328
0.3400000000000001,-0.86,0.2679745346346723
0.3600000000000001,-0.86,0.16249404236459522
0.3800000000000001,-0.86,0.05445092197719269
0.40000000000000013,-0.86,-0.05445092197719441
0.41999999999999993,-0.86,-0.16249404236459714