TITLE = "Solution" 
VARIABLES = "x", "y", "sol" 
ZONE STRANDID=1, SOLUTIONTIME= 0.3200000000000001, I= 101, J =101, DATAPACKING=POINT 
-1.0,-1.0,0.7068179694259333
-0.98,-1.0,0.7495299567313192
-0.96,-1.0,0.780421408871559
-0.94,-1.0,0.7990051491927423
-0.92,-1.0,0.8049881010086153
-0.9,-1.0,0.7982759095950004
-0.88,-1.0,0.7789744302201584
-0.86,-1.0,0.7473880587439758
-0.84,-1.0,0.7040149311134154
-0.8200000000000001,-1.0,0.649539067461062
-0.8,-1.0,0.5848195846990165
-0.78,-1.0,0.5108771477319819
-0.76,-1.0,0.4288778729619982
-0.74,-1.0,0.3401149379361811
-0.72,-1.0,0.24598818716429452
-0.7,-1.0,0.14798205573460677
-0.6799999999999999,-1.0,0.04764215888578914
-0.6599999999999999,-1.0,-0.05344908326870361
-0.64,-1.0,-0.15369740145111424
-0.62,-1.0,-0.2515218197982636
-0.6,-1.0,-0.3453795887953422
-0.5800000000000001,-1.0,-0.4337905153573527
-0.56,-1.0,-0.5153603063582849
-0.54,-1.0,-0.588802557466622
-0.52,-1.0,-0.652959040510112
-0.5,-1.0,-0.7068179694259333
-0.48,-1.0,-0.7495299567313192
-0.45999999999999996,-1.0,-0.780421408871559
-0.43999999999999995,-1.0,-0.7990051491927422
-0.42000000000000004,-1.0,-0.8049881010086156
-0.4,-1.0,-0.7982759095950005
-0.38,-1.0,-0.7789744302201587
-0.36,-1.0,-0.7473880587439756
-0.33999999999999997,-1.0,-0.7040149311134155
-0.31999999999999995,-1.0,-0.6495390674610623
-0.29999999999999993,-1.0,-0.5848195846990166
-0.28,-1.0,-0.5108771477319819
-0.26,-1.0,-0.42887787296199814
-0.24,-1.0,-0.34011493793618097
-0.21999999999999997,-1.0,-0.2459881871642943
-0.19999999999999996,-1.0,-0.1479820557346067
-0.17999999999999994,-1.0,-0.04764215888578911
-0.16000000000000003,-1.0,0.05344908326870361
-0.14,-1.0,0.15369740145111424
-0.12,-1.0,0.25152181979826355
-0.09999999999999998,-1.0,0.34537958879534203
-0.07999999999999996,-1.0,0.4337905153573526
-0.05999999999999994,-1.0,0.5153603063582844
-0.040000000000000036,-1.0,0.5888025574666218
-0.020000000000000018,-1.0,0.6529590405101118
0.0,-1.0,0.7068179694259333
0.020000000000000018,-1.0,0.7495299567313191
0.040000000000000036,-1.0,0.7804214088715591
0.06000000000000005,-1.0,0.7990051491927422
0.08000000000000007,-1.0,0.8049881010086153
0.10000000000000009,-1.0,0.7982759095950005
0.1200000000000001,-1.0,0.7789744302201581
0.14000000000000012,-1.0,0.7473880587439757
0.15999999999999992,-1.0,0.7040149311134154
0.17999999999999994,-1.0,0.649539067461062
0.19999999999999996,-1.0,0.5848195846990165
0.21999999999999997,-1.0,0.5108771477319819
0.24,-1.0,0.428877872961998
0.26,-1.0,0.3401149379361808
0.28,-1.0,0.24598818716429421
0.30000000000000004,-1.0,0.14798205573460668
0.32000000000000006,-1.0,0.04764215888578907
0.3400000000000001,-1.0,-0.053449083268703616
0.3600000000000001,-1.0,-0.1536974014511142
0.3800000000000001,-1.0,-0.2515218197982636
0.40000000000000013,-1.0,-0.34537958879534214
0.41999999999999993,-1.0,-0.4337905153573527
0.43999999999999995,-1.0,-0.5153603063582846
0.45999999999999996,-1.0,-0.588802557466622
0.48,-1.0,-0.652959040510112
0.5,-1.0,-0.7068179694259332
0.52,-1.0,-0.7495299567313188
0.54,-1.0,-0.780421408871559
0.56,-1.0,-0.799005149192742
0.5800000000000001,-1.0,-0.8049881010086154
0.6000000000000001,-1.0,-0.7982759095950004
0.6200000000000001,-1.0,-0.7789744302201583
0.6400000000000001,-1.0,-0.7473880587439754
0.6600000000000001,-1.0,-0.7040149311134153
0.6799999999999999,-1.0,-0.6495390674610619
0.7,-1.0,-0.5848195846990164
0.72,-1.0,-0.5108771477319818
0.74,-1.0,-0.42887787296199803
0.76,-1.0,-0.340114937936181
0.78,-1.0,-0.24598818716429446
0.8,-1.0,-0.1479820557346068
0.8200000000000001,-1.0,-0.04764215888578922
0.8400000000000001,-1.0,0.05344908326870349
0.8600000000000001,-1.0,0.15369740145111416
0.8800000000000001,-1.0,0.2515218197982635
0.9000000000000001,-1.0,0.34537958879534203
0.9199999999999999,-1.0,0.4337905153573526
0.94,-1.0,0.5153603063582846
0.96,-1.0,0.5888025574666218
0.98,-1.0,0.6529590405101119
1.0,-1.0,0.7068179694259333

-1.0,-0.98,0.7495299567313192
-0.98,-0.98,0.7926144717390617
-0.96,-0.98,0.823198983042545
-0.94,-0.98,0.8408011546282104
-0.92,-0.98,0.8451433897351255
-0.9,-0.98,0.8361572087217283
-0.88,-0.98,0.8139843290306845
-0.86,-0.98,0.778974430220158
-0.84,-0.98,0.731679639308291
-0.8200000000000001,-0.98,0.672845823400302
-0.8,-0.98,0.6034008269186782
-0.78,-0.98,0.5244398389423646
-0.76,-0.98,0.4372081214207556
-0.74,-0.98,0.3430813706488691
-0.72,-0.98,0.24354402171497327
-0.7,-0.98,0.14016583807248573
-0.6799999999999999,-0.98,0.03457715543258202
-0.6599999999999999,-0.98,-0.07155682960388503
-0.64,-0.98,-0.17656232069152078
-0.62,-0.98,-0.2787833185086335
-0.6,-0.98,-0.37660773685578286
-0.5800000000000001,-0.98,-0.4684928262181597
-0.56,-0.98,-0.552989503847027
-0.54,-0.98,-0.6287652066603094
-0.52,-0.98,-0.6946249065584305
-0.5,-0.98,-0.7495299567313193
-0.48,-0.98,-0.7926144717390617
-0.45999999999999996,-0.98,-0.8231989830425448
-0.43999999999999995,-0.98,-0.8408011546282107
-0.42000000000000004,-0.98,-0.8451433897351256
-0.4,-0.98,-0.8361572087217284
-0.38,-0.98,-0.8139843290306842
-0.36,-0.98,-0.778974430220158
-0.33999999999999997,-0.98,-0.7316796393082913
-0.31999999999999995,-0.98,-0.6728458234003021
-0.29999999999999993,-0.98,-0.6034008269186784
-0.28,-0.98,-0.5244398389423646
-0.26,-0.98,-0.43720812142075544
-0.24,-0.98,-0.34308137064886884
-0.21999999999999997,-0.98,-0.24354402171497322
-0.19999999999999996,-0.98,-0.14016583807248564
-0.17999999999999994,-0.98,-0.034577155432581955
-0.16000000000000003,-0.98,0.07155682960388506
-0.14,-0.98,0.17656232069152078
-0.12,-0.98,0.27878331850863336
-0.09999999999999998,-0.98,0.3766077368557827
-0.07999999999999996,-0.98,0.4684928262181594
-0.05999999999999994,-0.98,0.5529895038470269
-0.040000000000000036,-0.98,0.6287652066603094
-0.020000000000000018,-0.98,0.6946249065584303
0.0,-0.98,0.7495299567313191
0.020000000000000018,-0.98,0.7926144717390619
0.040000000000000036,-0.98,0.8231989830425449
0.06000000000000005,-0.98,0.8408011546282105
0.08000000000000007,-0.98,0.8451433897351257
0.10000000000000009,-0.98,0.836157208721728
0.1200000000000001,-0.98,0.8139843290306843
0.14000000000000012,-0.98,0.778974430220158
0.15999999999999992,-0.98,0.7316796393082912
0.17999999999999994,-0.98,0.672845823400302
0.19999999999999996,-0.98,0.6034008269186781
0.21999999999999997,-0.98,0.5244398389423643
0.24,-0.98,0.43720812142075544
0.26,-0.98,0.34308137064886873
0.28,-0.98,0.24354402171497314
0.30000000000000004,-0.98,0.14016583807248556
0.32000000000000006,-0.98,0.03457715543258195
0.3400000000000001,-0.98,-0.07155682960388504
0.3600000000000001,-0.98,-0.17656232069152078
0.3800000000000001,-0.98,-0.27878331850863336
0.40000000000000013,-0.98,-0.3766077368557828
0.41999999999999993,-0.98,-0.4684928262181595
0.43999999999999995,-0.98,-0.552989503847027
0.45999999999999996,-0.98,-0.6287652066603096
0.48,-0.98,-0.6946249065584305
0.5,-0.98,-0.749529956731319
0.52,-0.98,-0.7926144717390617
0.54,-0.98,-0.8231989830425446
0.56,-0.98,-0.8408011546282105
0.5800000000000001,-0.98,-0.8451433897351256
0.6000000000000001,-0.98,-0.836157208721728
0.6200000000000001,-0.98,-0.8139843290306842
0.6400000000000001,-0.98,-0.778974430220158
0.6600000000000001,-0.98,-0.731679639308291
0.6799999999999999,-0.98,-0.6728458234003019
0.7,-0.98,-0.6034008269186781
0.72,-0.98,-0.5244398389423643
0.74,-0.98,-0.4372081214207555
0.76,-0.98,-0.343081370648869
0.78,-0.98,-0.24354402171497322
0.8,-0.98,-0.14016583807248573
0.8200000000000001,-0.98,-0.03457715543258208
0.8400000000000001,-0.98,0.07155682960388493
0.8600000000000001,-0.98,0.17656232069152072
0.8800000000000001,-0.98,0.27878331850863325
0.9000000000000001,-0.98,0.37660773685578275
0.9199999999999999,-0.98,0.4684928262181594
0.94,-0.98,0.5529895038470269
0.96,-0.98,0.6287652066603094
0.98,-0.98,0.6946249065584303
1.0,-0.98,0.7495299567313192

-1.0,-0.96,0.7804214088715591
-0.98,-0.96,0.823198983042545
-0.96,-0.96,0.8529942174957131
-0.94,-0.96,0.8693372235849283
-0.92,-0.96,0.8719702623413231
-0.9,-0.96,0.8608518091708092
-0.88,-0.96,0.8361572087217275
-0.86,-0.96,0.7982759095949995
-0.84,-0.96,0.7478053225070445
-0.8200000000000001,-0.96,0.6855413987659071
-0.8,-0.96,0.6124660776436498
-0.78,-0.96,0.5297318006074518
-0.76,-0.96,0.43864333662923544
-0.74,-0.96,0.3406372051995478
-0.72,-0.96,0.2372590215570604
-0.7,-0.96,0.1301391214129486
-0.6799999999999999,-0.96,0.020966849582811628
-0.6599999999999999,-0.96,-0.08853608199023512
-0.64,-0.96,-0.19664274666140424
-0.62,-0.96,-0.30164823774904004
-0.6,-0.96,-0.4018965559314508
-0.5800000000000001,-0.96,-0.4958067253454571
-0.56,-0.96,-0.5818977265201843
-0.54,-0.96,-0.6588118529388356
-0.52,-0.96,-0.7253361228815167
-0.5,-0.96,-0.780421408871559
-0.48,-0.96,-0.8231989830425449
-0.45999999999999996,-0.96,-0.8529942174957135
-0.43999999999999995,-0.96,-0.8693372235849282
-0.42000000000000004,-0.96,-0.8719702623413231
-0.4,-0.96,-0.8608518091708091
-0.38,-0.96,-0.8361572087217276
-0.36,-0.96,-0.7982759095949997
-0.33999999999999997,-0.96,-0.7478053225070446
-0.31999999999999995,-0.96,-0.6855413987659071
-0.29999999999999993,-0.96,-0.6124660776436498
-0.28,-0.96,-0.5297318006074516
-0.26,-0.96,-0.4386433366292352
-0.24,-0.96,-0.34063720519954777
-0.21999999999999997,-0.96,-0.2372590215570603
-0.19999999999999996,-0.96,-0.13013912141294848
-0.17999999999999994,-0.96,-0.02096684958281158
-0.16000000000000003,-0.96,0.08853608199023515
-0.14,-0.96,0.19664274666140416
-0.12,-0.96,0.3016482377490399
-0.09999999999999998,-0.96,0.40189655593145057
-0.07999999999999996,-0.96,0.49580672534545694
-0.05999999999999994,-0.96,0.5818977265201845
-0.040000000000000036,-0.96,0.6588118529388355
-0.020000000000000018,-0.96,0.7253361228815167
0.0,-0.96,0.7804214088715589
0.020000000000000018,-0.96,0.8231989830425449
0.040000000000000036,-0.96,0.8529942174957136
0.06000000000000005,-0.96,0.8693372235849283
0.08000000000000007,-0.96,0.871970262341323
0.10000000000000009,-0.96,0.8608518091708091
0.1200000000000001,-0.96,0.8361572087217275
0.14000000000000012,-0.96,0.7982759095949996
0.15999999999999992,-0.96,0.7478053225070443
0.17999999999999994,-0.96,0.6855413987659069
0.19999999999999996,-0.96,0.6124660776436497
0.21999999999999997,-0.96,0.5297318006074516
0.24,-0.96,0.438643336629235
0.26,-0.96,0.34063720519954765
0.28,-0.96,0.23725902155706008
0.30000000000000004,-0.96,0.13013912141294845
0.32000000000000006,-0.96,0.020966849582811545
0.3400000000000001,-0.96,-0.08853608199023517
0.3600000000000001,-0.96,-0.19664274666140413
0.3800000000000001,-0.96,-0.30164823774904
0.40000000000000013,-0.96,-0.4018965559314507
0.41999999999999993,-0.96,-0.49580672534545706
0.43999999999999995,-0.96,-0.5818977265201845
0.45999999999999996,-0.96,-0.6588118529388356
0.48,-0.96,-0.7253361228815166
0.5,-0.96,-0.7804214088715589
0.52,-0.96,-0.8231989830425447
0.54,-0.96,-0.8529942174957135
0.56,-0.96,-0.8693372235849283
0.5800000000000001,-0.96,-0.8719702623413231
0.6000000000000001,-0.96,-0.8608518091708091
0.6200000000000001,-0.96,-0.8361572087217276
0.6400000000000001,-0.96,-0.7982759095949995
0.6600000000000001,-0.96,-0.7478053225070443
0.6799999999999999,-0.96,-0.6855413987659069
0.7,-0.96,-0.6124660776436497
0.72,-0.96,-0.5297318006074517
0.74,-0.96,-0.43864333662923527
0.76,-0.96,-0.3406372051995477
0.78,-0.96,-0.23725902155706033
0.8,-0.96,-0.1301391214129486
0.8200000000000001,-0.96,-0.020966849582811704
0.8400000000000001,-0.96,0.08853608199023505
0.8600000000000001,-0.96,0.19664274666140397
0.8800000000000001,-0.96,0.3016482377490399
0.9000000000000001,-0.96,0.40189655593145057
0.9199999999999999,-0.96,0.495806725345457
0.94,-0.96,0.5818977265201843
0.96,-0.96,0.6588118529388355
0.98,-0.96,0.7253361228815167
1.0,-0.96,0.7804214088715591

-1.0,-0.94,0.7990051491927423
-0.98,-0.94,0.8408011546282104
-0.96,-0.94,0.8693372235849283
-0.94,-0.94,0.8841633252088261
-0.92,-0.94,0.8850456430206114
-0.9,-0.94,0.8719702623413221
-0.88,-0.94,0.8451433897351242
-0.86,-0.94,0.8049881010086138
-0.84,-0.94,0.7521376690526154
-0.8200000000000001,-0.94,0.6874255767503921
-0.8,-0.94,0.6118723724546805
-0.78,-0.94,0.5266695753305205
-0.76,-0.94,0.4331608843862441
-0.74,-0.94,0.3328209875374268
-0.72,-0.94,0.22723230489752325
-0.7,-0.94,0.11806003306738638
-0.6799999999999999,-0.94,0.007025883990131524
-0.6599999999999999,-0.94,-0.10411906747470752
-0.64,-0.94,-0.21362199904775434
-0.62,-0.94,-0.3197559840842215
-0.6,-0.94,-0.42084722623871423
-0.5800000000000001,-0.94,-0.5153014562334753
-0.56,-0.94,-0.6016290744372657
-0.54,-0.94,-0.6784686427413915
-0.52,-0.94,-0.7446083552519641
-0.5,-0.94,-0.7990051491927423
-0.48,-0.94,-0.8408011546282105
-0.45999999999999996,-0.94,-0.8693372235849282
-0.43999999999999995,-0.94,-0.8841633252088261
-0.42000000000000004,-0.94,-0.8850456430206114
-0.4,-0.94,-0.8719702623413221
-0.38,-0.94,-0.8451433897351242
-0.36,-0.94,-0.8049881010086137
-0.33999999999999997,-0.94,-0.7521376690526154
-0.31999999999999995,-0.94,-0.6874255767503921
-0.29999999999999993,-0.94,-0.6118723724546804
-0.28,-0.94,-0.5266695753305205
-0.26,-0.94,-0.4331608843862441
-0.24,-0.94,-0.33282098753742667
-0.21999999999999997,-0.94,-0.22723230489752314
-0.19999999999999996,-0.94,-0.11806003306738627
-0.17999999999999994,-0.94,-0.007025883990131458
-0.16000000000000003,-0.94,0.10411906747470752
-0.14,-0.94,0.21362199904775425
-0.12,-0.94,0.31975598408422135
-0.09999999999999998,-0.94,0.4208472262387141
-0.07999999999999996,-0.94,0.5153014562334755
-0.05999999999999994,-0.94,0.6016290744372655
-0.040000000000000036,-0.94,0.6784686427413917
-0.020000000000000018,-0.94,0.744608355251964
0.0,-0.94,0.7990051491927423
0.020000000000000018,-0.94,0.8408011546282106
0.040000000000000036,-0.94,0.8693372235849283
0.06000000000000005,-0.94,0.884163325208826
0.08000000000000007,-0.94,0.8850456430206113
0.10000000000000009,-0.94,0.871970262341322
0.1200000000000001,-0.94,0.8451433897351242
0.14000000000000012,-0.94,0.8049881010086136
0.15999999999999992,-0.94,0.7521376690526151
0.17999999999999994,-0.94,0.6874255767503921
0.19999999999999996,-0.94,0.6118723724546803
0.21999999999999997,-0.94,0.5266695753305203
0.24,-0.94,0.433160884386244
0.26,-0.94,0.3328209875374265
0.28,-0.94,0.22723230489752305
0.30000000000000004,-0.94,0.11806003306738617
0.32000000000000006,-0.94,0.007025883990131406
0.3400000000000001,-0.94,-0.10411906747470749
0.3600000000000001,-0.94,-0.2136219990477543
0.3800000000000001,-0.94,-0.31975598408422146
0.40000000000000013,-0.94,-0.4208472262387142
0.41999999999999993,-0.94,-0.5153014562334755
0.43999999999999995,-0.94,-0.6016290744372658
0.45999999999999996,-0.94,-0.6784686427413915
0.48,-0.94,-0.7446083552519639
0.5,-0.94,-0.7990051491927421
0.52,-0.94,-0.8408011546282106
0.54,-0.94,-0.8693372235849283
0.56,-0.94,-0.884163325208826
0.5800000000000001,-0.94,-0.8850456430206113
0.6000000000000001,-0.94,-0.8719702623413221
0.6200000000000001,-0.94,-0.8451433897351242
0.6400000000000001,-0.94,-0.8049881010086137
0.6600000000000001,-0.94,-0.752137669052615
0.6799999999999999,-0.94,-0.6874255767503918
0.7,-0.94,-0.6118723724546803
0.72,-0.94,-0.5266695753305205
0.74,-0.94,-0.433160884386244
0.76,-0.94,-0.33282098753742667
0.78,-0.94,-0.2272323048975232
0.8,-0.94,-0.11806003306738638
0.8200000000000001,-0.94,-0.0070258839901315585
0.8400000000000001,-0.94,0.10411906747470734
0.8600000000000001,-0.94,0.2136219990477542
0.8800000000000001,-0.94,0.3197559840842213
0.9000000000000001,-0.94,0.42084722623871407
0.9199999999999999,-0.94,0.5153014562334755
0.94,-0.94,0.6016290744372657
0.96,-0.94,0.6784686427413916
0.98,-0.94,0.7446083552519642
1.0,-0.94,0.7990051491927423

-1.0,-0.92,0.8049881010086152
-0.98,-0.92,0.8451433897351256
-0.96,-0.92,0.8719702623413234
-0.94,-0.92,0.8850456430206114
-0.92,-0.92,0.8841633252088248
-0.9,-0.92,0.8693372235849262
-0.88,-0.92,0.8408011546282083
-0.86,-0.92,0.7990051491927399
-0.84,-0.92,0.7446083552519613
-0.8200000000000001,-0.92,0.6784686427413888
-0.8,-0.92,0.6016290744372629
-0.78,-0.92,0.5153014562334729
-0.76,-0.92,0.4208472262387121
-0.74,-0.92,0.3197559840842196
-0.72,-0.92,0.21362199904775286
-0.7,-0.92,0.10411906747470624
-0.6799999999999999,-0.92,-0.007025883990132717
-0.6599999999999999,-0.92,-0.11806003306738769
-0.64,-0.92,-0.22723230489752477
-0.62,-0.92,-0.3328209875374285
-0.6,-0.92,-0.4331608843862461
-0.5800000000000001,-0.92,-0.5266695753305226
-0.56,-0.92,-0.6118723724546825
-0.54,-0.92,-0.6874255767503941
-0.52,-0.92,-0.752137669052617
-0.5,-0.92,-0.8049881010086154
-0.48,-0.92,-0.8451433897351255
-0.45999999999999996,-0.92,-0.8719702623413231
-0.43999999999999995,-0.92,-0.8850456430206114
-0.42000000000000004,-0.92,-0.8841633252088247
-0.4,-0.92,-0.8693372235849262
-0.38,-0.92,-0.8408011546282083
-0.36,-0.92,-0.79900514919274
-0.33999999999999997,-0.92,-0.7446083552519613
-0.31999999999999995,-0.92,-0.6784686427413888
-0.29999999999999993,-0.92,-0.6016290744372629
-0.28,-0.92,-0.515301456233473
-0.26,-0.92,-0.420847226238712
-0.24,-0.92,-0.31975598408421957
-0.21999999999999997,-0.92,-0.21362199904775273
-0.19999999999999996,-0.92,-0.10411906747470619
-0.17999999999999994,-0.92,0.007025883990132766
-0.16000000000000003,-0.92,0.11806003306738763
-0.14,-0.92,0.22723230489752463
-0.12,-0.92,0.33282098753742845
-0.09999999999999998,-0.92,0.43316088438624606
-0.07999999999999996,-0.92,0.5266695753305226
-0.05999999999999994,-0.92,0.6118723724546826
-0.040000000000000036,-0.92,0.6874255767503941
-0.020000000000000018,-0.92,0.7521376690526171
0.0,-0.92,0.8049881010086154
0.020000000000000018,-0.92,0.8451433897351255
0.040000000000000036,-0.92,0.871970262341323
0.06000000000000005,-0.92,0.8850456430206113
0.08000000000000007,-0.92,0.8841633252088246
0.10000000000000009,-0.92,0.8693372235849263
0.1200000000000001,-0.92,0.840801154628208
0.14000000000000012,-0.92,0.7990051491927398
0.15999999999999992,-0.92,0.7446083552519615
0.17999999999999994,-0.92,0.6784686427413887
0.19999999999999996,-0.92,0.6016290744372627
0.21999999999999997,-0.92,0.5153014562334729
0.24,-0.92,0.4208472262387119
0.26,-0.92,0.3197559840842195
0.28,-0.92,0.21362199904775264
0.30000000000000004,-0.92,0.10411906747470606
0.32000000000000006,-0.92,-0.00702588399013279
0.3400000000000001,-0.92,-0.11806003306738769
0.3600000000000001,-0.92,-0.22723230489752472
0.3800000000000001,-0.92,-0.3328209875374285
0.40000000000000013,-0.92,-0.4331608843862461
0.41999999999999993,-0.92,-0.5266695753305227
0.43999999999999995,-0.92,-0.6118723724546824
0.45999999999999996,-0.92,-0.6874255767503941
0.48,-0.92,-0.752137669052617
0.5,-0.92,-0.8049881010086154
0.52,-0.92,-0.8451433897351256
0.54,-0.92,-0.8719702623413231
0.56,-0.92,-0.8850456430206112
0.5800000000000001,-0.92,-0.8841633252088248
0.6000000000000001,-0.92,-0.8693372235849262
0.6200000000000001,-0.92,-0.8408011546282083
0.6400000000000001,-0.92,-0.7990051491927397
0.6600000000000001,-0.92,-0.7446083552519612
0.6799999999999999,-0.92,-0.6784686427413886
0.7,-0.92,-0.601629074437263
0.72,-0.92,-0.5153014562334728
0.74,-0.92,-0.42084722623871196
0.76,-0.92,-0.31975598408421957
0.78,-0.92,-0.21362199904775278
0.8,-0.92,-0.10411906747470621
0.8200000000000001,-0.92,0.007025883990132603
0.8400000000000001,-0.92,0.11806003306738752
0.8600000000000001,-0.92,0.22723230489752452
0.8800000000000001,-0.92,0.3328209875374283
0.9000000000000001,-0.92,0.433160884386246
0.9199999999999999,-0.92,0.5266695753305226
0.94,-0.92,0.6118723724546825
0.96,-0.92,0.6874255767503942
0.98,-0.92,0.7521376690526171
1.0,-0.92,0.8049881010086152

-1.0,-0.9,0.7982759095950004
-0.98,-0.9,0.8361572087217285
-0.96,-0.9,0.8608518091708092
-0.94,-0.9,0.8719702623413221
-0.92,-0.9,0.8693372235849262
-0.9,-0.9,0.8529942174957109
-0.88,-0.9,0.823198983042542
-0.86,-0.9,0.780421408871556
-0.84,-0.9,0.7253361228815135
-0.8200000000000001,-0.9,0.6588118529388323
-0.8,-0.9,0.5818977265201812
-0.78,-0.9,0.4958067253454545
-0.76,-0.9,0.40189655593144863
-0.74,-0.9,0.3016482377490384
-0.72,-0.9,0.19664274666140283
-0.7,-0.9,0.08853608199023387
-0.6799999999999999,-0.9,-0.020966849582812877
-0.6599999999999999,-0.9,-0.1301391214129499
-0.64,-0.9,-0.2372590215570618
-0.62,-0.9,-0.3406372051995493
-0.6,-0.9,-0.43864333662923677
-0.5800000000000001,-0.9,-0.5297318006074531
-0.56,-0.9,-0.6124660776436509
-0.54,-0.9,-0.6855413987659081
-0.52,-0.9,-0.7478053225070455
-0.5,-0.9,-0.7982759095950004
-0.48,-0.9,-0.8361572087217284
-0.45999999999999996,-0.9,-0.8608518091708092
-0.43999999999999995,-0.9,-0.8719702623413221
-0.42000000000000004,-0.9,-0.8693372235849262
-0.4,-0.9,-0.852994217495711
-0.38,-0.9,-0.8231989830425422
-0.36,-0.9,-0.7804214088715559
-0.33999999999999997,-0.9,-0.7253361228815136
-0.31999999999999995,-0.9,-0.6588118529388324
-0.29999999999999993,-0.9,-0.5818977265201815
-0.28,-0.9,-0.4958067253454545
-0.26,-0.9,-0.4018965559314485
-0.24,-0.9,-0.3016482377490382
-0.21999999999999997,-0.9,-0.19664274666140272
-0.19999999999999996,-0.9,-0.08853608199023379
-0.17999999999999994,-0.9,0.020966849582812898
-0.16000000000000003,-0.9,0.13013912141294984
-0.14,-0.9,0.23725902155706172
-0.12,-0.9,0.34063720519954926
-0.09999999999999998,-0.9,0.4386433366292367
-0.07999999999999996,-0.9,0.5297318006074532
-0.05999999999999994,-0.9,0.6124660776436509
-0.040000000000000036,-0.9,0.685541398765908
-0.020000000000000018,-0.9,0.7478053225070455
0.0,-0.9,0.7982759095950004
0.020000000000000018,-0.9,0.8361572087217282
0.040000000000000036,-0.9,0.8608518091708091
0.06000000000000005,-0.9,0.871970262341322
0.08000000000000007,-0.9,0.8693372235849262
0.10000000000000009,-0.9,0.8529942174957108
0.1200000000000001,-0.9,0.823198983042542
0.14000000000000012,-0.9,0.7804214088715559
0.15999999999999992,-0.9,0.7253361228815134
0.17999999999999994,-0.9,0.6588118529388322
0.19999999999999996,-0.9,0.5818977265201812
0.21999999999999997,-0.9,0.4958067253454544
0.24,-0.9,0.4018965559314484
0.26,-0.9,0.30164823774903815
0.28,-0.9,0.19664274666140258
0.30000000000000004,-0.9,0.0885360819902337
0.32000000000000006,-0.9,-0.020966849582812946
0.3400000000000001,-0.9,-0.1301391214129499
0.3600000000000001,-0.9,-0.23725902155706177
0.3800000000000001,-0.9,-0.3406372051995493
0.40000000000000013,-0.9,-0.4386433366292368
0.41999999999999993,-0.9,-0.529731800607453
0.43999999999999995,-0.9,-0.612466077643651
0.45999999999999996,-0.9,-0.6855413987659081
0.48,-0.9,-0.7478053225070455
0.5,-0.9,-0.7982759095950004
0.52,-0.9,-0.8361572087217282
0.54,-0.9,-0.860851809170809
0.56,-0.9,-0.871970262341322
0.5800000000000001,-0.9,-0.8693372235849263
0.6000000000000001,-0.9,-0.8529942174957109
0.6200000000000001,-0.9,-0.8231989830425419
0.6400000000000001,-0.9,-0.7804214088715558
0.6600000000000001,-0.9,-0.7253361228815134
0.6799999999999999,-0.9,-0.6588118529388324
0.7,-0.9,-0.5818977265201811
0.72,-0.9,-0.49580672534545434
0.74,-0.9,-0.4018965559314484
0.76,-0.9,-0.3016482377490382
0.78,-0.9,-0.1966427466614027
0.8,-0.9,-0.08853608199023394
0.8200000000000001,-0.9,0.02096684958281276
0.8400000000000001,-0.9,0.13013912141294975
0.8600000000000001,-0.9,0.23725902155706158
0.8800000000000001,-0.9,0.3406372051995492
0.9000000000000001,-0.9,0.4386433366292366
0.9199999999999999,-0.9,0.5297318006074531
0.94,-0.9,0.612466077643651
0.96,-0.9,0.685541398765908
0.98,-0.9,0.7478053225070453
1.0,-0.9,0.7982759095950004

-1.0,-0.88,0.7789744302201586
-0.98,-0.88,0.8139843290306843
-0.96,-0.88,0.8361572087217276
-0.94,-0.88,0.8451433897351242
-0.92,-0.88,0.8408011546282083
-0.9,-0.88,0.823198983042542
-0.88,-0.88,0.7926144717390587
-0.86,-0.88,0.7495299567313157
-0.84,-0.88,0.6946249065584268
-0.8200000000000001,-0.88,0.6287652066603059
-0.8,-0.88,0.5529895038470239
-0.78,-0.88,0.4684928262181571
-0.76,-0.88,0.37660773685578086
-0.74,-0.88,0.27878331850863186
-0.72,-0.88,0.1765623206915194
-0.7,-0.88,0.07155682960388378
-0.6799999999999999,-0.88,-0.03457715543258322
-0.6599999999999999,-0.88,-0.14016583807248698
-0.64,-0.88,-0.24354402171497447
-0.62,-0.88,-0.34308137064887007
-0.6,-0.88,-0.4372081214207563
-0.5800000000000001,-0.88,-0.5244398389423652
-0.56,-0.88,-0.6034008269186788
-0.54,-0.88,-0.6728458234003025
-0.52,-0.88,-0.7316796393082916
-0.5,-0.88,-0.7789744302201586
-0.48,-0.88,-0.8139843290306844
-0.45999999999999996,-0.88,-0.8361572087217277
-0.43999999999999995,-0.88,-0.845143389735124
-0.42000000000000004,-0.88,-0.8408011546282084
-0.4,-0.88,-0.8231989830425421
-0.38,-0.88,-0.7926144717390585
-0.36,-0.88,-0.7495299567313157
-0.33999999999999997,-0.88,-0.694624906558427
-0.31999999999999995,-0.88,-0.6287652066603061
-0.29999999999999993,-0.88,-0.552989503847024
-0.28,-0.88,-0.4684928262181571
-0.26,-0.88,-0.3766077368557808
-0.24,-0.88,-0.27878331850863175
-0.21999999999999997,-0.88,-0.1765623206915193
-0.19999999999999996,-0.88,-0.07155682960388371
-0.17999999999999994,-0.88,0.03457715543258324
-0.16000000000000003,-0.88,0.14016583807248695
-0.14,-0.88,0.2435440217149744
-0.12,-0.88,0.34308137064887
-0.09999999999999998,-0.88,0.4372081214207564
-0.07999999999999996,-0.88,0.5244398389423651
-0.05999999999999994,-0.88,0.6034008269186788
-0.040000000000000036,-0.88,0.6728458234003025
-0.020000000000000018,-0.88,0.7316796393082915
0.0,-0.88,0.7789744302201583
0.020000000000000018,-0.88,0.8139843290306843
0.040000000000000036,-0.88,0.8361572087217275
0.06000000000000005,-0.88,0.8451433897351242
0.08000000000000007,-0.88,0.8408011546282083
0.10000000000000009,-0.88,0.823198983042542
0.1200000000000001,-0.88,0.7926144717390586
0.14000000000000012,-0.88,0.7495299567313156
0.15999999999999992,-0.88,0.6946249065584268
0.17999999999999994,-0.88,0.6287652066603059
0.19999999999999996,-0.88,0.5529895038470237
0.21999999999999997,-0.88,0.46849282621815685
0.24,-0.88,0.3766077368557807
0.26,-0.88,0.2787833185086316
0.28,-0.88,0.17656232069151917
0.30000000000000004,-0.88,0.07155682960388364
0.32000000000000006,-0.88,-0.03457715543258327
0.3400000000000001,-0.88,-0.14016583807248695
0.3600000000000001,-0.88,-0.24354402171497447
0.3800000000000001,-0.88,-0.34308137064887
0.40000000000000013,-0.88,-0.4372081214207563
0.41999999999999993,-0.88,-0.5244398389423651
0.43999999999999995,-0.88,-0.6034008269186789
0.45999999999999996,-0.88,-0.6728458234003026
0.48,-0.88,-0.7316796393082915
0.5,-0.88,-0.7789744302201582
0.52,-0.88,-0.8139843290306843
0.54,-0.88,-0.8361572087217275
0.56,-0.88,-0.8451433897351243
0.5800000000000001,-0.88,-0.8408011546282083
0.6000000000000001,-0.88,-0.8231989830425421
0.6200000000000001,-0.88,-0.7926144717390586
0.6400000000000001,-0.88,-0.7495299567313156
0.6600000000000001,-0.88,-0.694624906558427
0.6799999999999999,-0.88,-0.6287652066603059
0.7,-0.88,-0.5529895038470237
0.72,-0.88,-0.46849282621815685
0.74,-0.88,-0.3766077368557807
0.76,-0.88,-0.2787833185086317
0.78,-0.88,-0.17656232069151942
0.8,-0.88,-0.07155682960388383
0.8200000000000001,-0.88,0.03457715543258312
0.8400000000000001,-0.88,0.14016583807248675
0.8600000000000001,-0.88,0.2435440217149743
0.8800000000000001,-0.88,0.3430813706488699
0.9000000000000001,-0.88,0.4372081214207563
0.9199999999999999,-0.88,0.5244398389423652
0.94,-0.88,0.6034008269186787
0.96,-0.88,0.6728458234003025
0.98,-0.88,0.7316796393082915
1.0,-0.88,0.7789744302201586

-1.0,-0.86,0.7473880587439757
-0.98,-0.86,0.778974430220158
-0.96,-0.86,0.7982759095949996
-0.94,-0.86,0.8049881010086138
-0.92,-0.86,0.7990051491927398
-0.9,-0.86,0.7804214088715561
-0.88,-0.86,0.7495299567313157
-0.86,-0.86,0.7068179694259297
-0.84,-0.86,0.6529590405101081
-0.8200000000000001,-0.86,0.5888025574666185
-0.8,-0.86,0.5153603063582818
-0.78,-0.86,0.4337905153573505
-0.76,-0.86,0.3453795887953404
-0.74,-0.86,0.251521819798262
-0.72,-0.86,0.15369740145111294
-0.7,-0.86,0.05344908326870246
-0.6799999999999999,-0.86,-0.04764215888579023
-0.6599999999999999,-0.86,-0.1479820557346078
-0.64,-0.86,-0.24598818716429527
-0.62,-0.86,-0.3401149379361816
-0.6,-0.86,-0.4288778729619986
-0.5800000000000001,-0.86,-0.5108771477319821
-0.56,-0.86,-0.5848195846990171
-0.54,-0.86,-0.6495390674610624
-0.52,-0.86,-0.7040149311134157
-0.5,-0.86,-0.7473880587439758
-0.48,-0.86,-0.7789744302201581
-0.45999999999999996,-0.86,-0.7982759095949996
-0.43999999999999995,-0.86,-0.804988101008614
-0.42000000000000004,-0.86,-0.7990051491927399
-0.4,-0.86,-0.7804214088715559
-0.38,-0.86,-0.7495299567313157
-0.36,-0.86,-0.7068179694259297
-0.33999999999999997,-0.86,-0.6529590405101082
-0.31999999999999995,-0.86,-0.5888025574666186
-0.29999999999999993,-0.86,-0.5153603063582819
-0.28,-0.86,-0.4337905153573504
-0.26,-0.86,-0.34537958879534036
-0.24,-0.86,-0.251521819798262
-0.21999999999999997,-0.86,-0.1536974014511128
-0.19999999999999996,-0.86,-0.05344908326870236
-0.17999999999999994,-0.86,0.047642158885790264
-0.16000000000000003,-0.86,0.14798205573460776
-0.14,-0.86,0.2459881871642952
-0.12,-0.86,0.3401149379361815
-0.09999999999999998,-0.86,0.4288778729619986
-0.07999999999999996,-0.86,0.5108771477319821
-0.05999999999999994,-0.86,0.5848195846990168
-0.040000000000000036,-0.86,0.6495390674610623
-0.020000000000000018,-0.86,0.7040149311134156
0.0,-0.86,0.7473880587439757
0.020000000000000018,-0.86,0.778974430220158
0.040000000000000036,-0.86,0.7982759095949995
0.06000000000000005,-0.86,0.8049881010086138
0.08000000000000007,-0.86,0.7990051491927398
0.10000000000000009,-0.86,0.7804214088715559
0.1200000000000001,-0.86,0.7495299567313155
0.14000000000000012,-0.86,0.7068179694259297
0.15999999999999992,-0.86,0.6529590405101081
0.17999999999999994,-0.86,0.5888025574666182
0.19999999999999996,-0.86,0.5153603063582817
0.21999999999999997,-0.86,0.43379051535735036
0.24,-0.86,0.34537958879534014
0.26,-0.86,0.2515218197982618
0.28,-0.86,0.15369740145111277
0.30000000000000004,-0.86,0.05344908326870232
0.32000000000000006,-0.86,-0.04764215888579028
0.3400000000000001,-0.86,-0.1479820557346078
0.3600000000000001,-0.86,-0.24598818716429527
0.3800000000000001,-0.86,-0.3401149379361815
0.40000000000000013,-0.86,-0.4288778729619986
0.41999999999999993,-0.86,-0.5108771477319822
0.43999999999999995,-0.86,-0.584819584699017