TITLE = "Solution" 
VARIABLES = "x", "y", "sol" 
ZONE STRANDID=1, SOLUTIONTIME= 0.6800000000000004, I= 101, J =101, DATAPACKING=POINT 
-1.0,-1.0,0.6105744241367387
-0.98,-1.0,0.5574744043220756
-0.96,-1.0,0.4955826801321877
-0.94,-1.0,0.42587532102987147
-0.92,-1.0,0.3494516537093287
-0.9,-1.0,0.26751692505749025
-0.88,-1.0,0.18136329469063045
-0.86,-1.0,0.09234945682531842
-0.84,-1.0,0.0018792128589794847
-0.8200000000000001,-1.0,-0.08862066741673284
-0.8,-1.0,-0.1777229468278628
-0.78,-1.0,-0.2640224292009751
-0.76,-1.0,-0.34615812014623343
-0.74,-1.0,-0.4228346907519478
-0.72,-1.0,-0.4928429056953033
-0.7,-1.0,-0.5550786936057627
-0.6799999999999999,-1.0,-0.6085605589301205
-0.6599999999999999,-1.0,-0.6524450607036936
-0.64,-1.0,-0.6860401141181817
-0.62,-1.0,-0.7088159051125269
-0.6,-1.0,-0.7204132458571496
-0.5800000000000001,-1.0,-0.7206492393605918
-0.56,-1.0,-0.709520163864329
-0.54,-1.0,-0.6872015315371248
-0.52,-1.0,-0.6540453205432835
-0.5,-1.0,-0.6105744241367386
-0.48,-1.0,-0.5574744043220762
-0.45999999999999996,-1.0,-0.495582680132188
-0.43999999999999995,-1.0,-0.4258753210298716
-0.42000000000000004,-1.0,-0.34945165370932874
-0.4,-1.0,-0.2675169250574903
-0.38,-1.0,-0.1813632946906304
-0.36,-1.0,-0.0923494568253184
-0.33999999999999997,-1.0,-0.0018792128589794534
-0.31999999999999995,-1.0,0.08862066741673291
-0.29999999999999993,-1.0,0.17772294682786288
-0.28,-1.0,0.2640224292009752
-0.26,-1.0,0.3461581201462336
-0.24,-1.0,0.4228346907519479
-0.21999999999999997,-1.0,0.4928429056953034
-0.19999999999999996,-1.0,0.5550786936057628
-0.17999999999999994,-1.0,0.6085605589301205
-0.16000000000000003,-1.0,0.6524450607036937
-0.14,-1.0,0.6860401141181814
-0.12,-1.0,0.7088159051125269
-0.09999999999999998,-1.0,0.7204132458571497
-0.07999999999999996,-1.0,0.7206492393605919
-0.05999999999999994,-1.0,0.7095201638643291
-0.040000000000000036,-1.0,0.6872015315371246
-0.020000000000000018,-1.0,0.6540453205432832
0.0,-1.0,0.6105744241367386
0.020000000000000018,-1.0,0.557474404322076
0.040000000000000036,-1.0,0.4955826801321878
0.06000000000000005,-1.0,0.42587532102987163
0.08000000000000007,-1.0,0.3494516537093286
0.10000000000000009,-1.0,0.26751692505749025
0.1200000000000001,-1.0,0.18136329469063037
0.14000000000000012,-1.0,0.09234945682531831
0.15999999999999992,-1.0,0.001879212858979436
0.17999999999999994,-1.0,-0.08862066741673293
0.19999999999999996,-1.0,-0.1777229468278629
0.21999999999999997,-1.0,-0.26402242920097513
0.24,-1.0,-0.3461581201462335
0.26,-1.0,-0.4228346907519479
0.28,-1.0,-0.4928429056953034
0.30000000000000004,-1.0,-0.5550786936057628
0.32000000000000006,-1.0,-0.6085605589301203
0.3400000000000001,-1.0,-0.6524450607036933
0.3600000000000001,-1.0,-0.6860401141181817
0.3800000000000001,-1.0,-0.7088159051125268
0.40000000000000013,-1.0,-0.7204132458571497
0.41999999999999993,-1.0,-0.7206492393605917
0.43999999999999995,-1.0,-0.709520163864329
0.45999999999999996,-1.0,-0.6872015315371246
0.48,-1.0,-0.6540453205432832
0.5,-1.0,-0.6105744241367385
0.52,-1.0,-0.5574744043220758
0.54,-1.0,-0.49558268013218787
0.56,-1.0,-0.4258753210298714
0.5800000000000001,-1.0,-0.3494516537093284
0.6000000000000001,-1.0,-0.26751692505749025
0.6200000000000001,-1.0,-0.18136329469063034
0.6400000000000001,-1.0,-0.09234945682531825
0.6600000000000001,-1.0,-0.0018792128589794257
0.6799999999999999,-1.0,0.088620667416733
0.7,-1.0,0.177722946827863
0.72,-1.0,0.26402242920097513
0.74,-1.0,0.3461581201462335
0.76,-1.0,0.4228346907519478
0.78,-1.0,0.4928429056953034
0.8,-1.0,0.5550786936057627
0.8200000000000001,-1.0,0.6085605589301206
0.8400000000000001,-1.0,0.6524450607036933
0.8600000000000001,-1.0,0.6860401141181818
0.8800000000000001,-1.0,0.7088159051125267
0.9000000000000001,-1.0,0.7204132458571495
0.9199999999999999,-1.0,0.720649239360592
0.94,-1.0,0.7095201638643291
0.96,-1.0,0.6872015315371249
0.98,-1.0,0.6540453205432833
1.0,-1.0,0.6105744241367387

-1.0,-0.98,0.5574744043220756
-0.98,-0.98,0.5047520750449307
-0.96,-0.98,0.44406950402005246
-0.94,-0.98,0.3763836916425145
-0.92,-0.98,0.3027620836070548
-0.9,-0.98,0.2243657366518102
-0.88,-0.98,0.14243100799997174
-0.86,-0.98,0.058250057267813626
-0.84,-0.98,-0.026849531664355393
-0.8200000000000001,-0.98,-0.11152568744304489
-0.8,-0.98,-0.1944430165085413
-0.78,-0.98,-0.2742938630490699
-0.76,-0.98,-0.34981893151410326
-0.74,-0.98,-0.4198271464574587
-0.72,-0.98,-0.48321443650859935
-0.7,-0.98,-0.5389811462376868
-0.6799999999999999,-0.98,-0.5862478013188758
-0.6599999999999999,-0.98,-0.6242689783658044
-0.64,-0.98,-0.6524450607036929
-0.62,-0.98,-0.6703316946824966
-0.6,-0.98,-0.6776467973994126
-0.5800000000000001,-0.98,-0.6742750053147646
-0.56,-0.98,-0.6602694936039392
-0.54,-0.98,-0.6358511375531024
-0.52,-0.98,-0.6014050292239956
-0.5,-0.98,-0.5574744043220762
-0.48,-0.98,-0.504752075044931
-0.45999999999999996,-0.98,-0.44406950402005263
-0.43999999999999995,-0.98,-0.3763836916425146
-0.42000000000000004,-0.98,-0.3027620836070549
-0.4,-0.98,-0.22436573665181012
-0.38,-0.98,-0.14243100799997174
-0.36,-0.98,-0.05825005726781364
-0.33999999999999997,-0.98,0.026849531664355452
-0.31999999999999995,-0.98,0.11152568744304499
-0.29999999999999993,-0.98,0.19444301650854134
-0.28,-0.98,0.27429386304907005
-0.26,-0.98,0.34981893151410326
-0.24,-0.98,0.41982714645745883
-0.21999999999999997,-0.98,0.48321443650859947
-0.19999999999999996,-0.98,0.5389811462376869
-0.17999999999999994,-0.98,0.5862478013188758
-0.16000000000000003,-0.98,0.6242689783658043
-0.14,-0.98,0.6524450607036929
-0.12,-0.98,0.6703316946824966
-0.09999999999999998,-0.98,0.6776467973994127
-0.07999999999999996,-0.98,0.6742750053147647
-0.05999999999999994,-0.98,0.6602694936039387
-0.040000000000000036,-0.98,0.6358511375531024
-0.020000000000000018,-0.98,0.6014050292239956
0.0,-0.98,0.557474404322076
0.020000000000000018,-0.98,0.5047520750449308
0.040000000000000036,-0.98,0.44406950402005263
0.06000000000000005,-0.98,0.3763836916425144
0.08000000000000007,-0.98,0.3027620836070548
0.10000000000000009,-0.98,0.2243657366518101
0.1200000000000001,-0.98,0.1424310079999717
0.14000000000000012,-0.98,0.05825005726781361
0.15999999999999992,-0.98,-0.026849531664355487
0.17999999999999994,-0.98,-0.111525687443045
0.19999999999999996,-0.98,-0.19444301650854132
0.21999999999999997,-0.98,-0.27429386304907
0.24,-0.98,-0.34981893151410326
0.26,-0.98,-0.4198271464574588
0.28,-0.98,-0.4832144365085994
0.30000000000000004,-0.98,-0.5389811462376867
0.32000000000000006,-0.98,-0.5862478013188755
0.3400000000000001,-0.98,-0.6242689783658044
0.3600000000000001,-0.98,-0.6524450607036928
0.3800000000000001,-0.98,-0.6703316946824966
0.40000000000000013,-0.98,-0.6776467973994126
0.41999999999999993,-0.98,-0.6742750053147646
0.43999999999999995,-0.98,-0.6602694936039388
0.45999999999999996,-0.98,-0.6358511375531023
0.48,-0.98,-0.6014050292239956
0.5,-0.98,-0.5574744043220758
0.52,-0.98,-0.5047520750449309
0.54,-0.98,-0.4440695040200524
0.56,-0.98,-0.3763836916425142
0.5800000000000001,-0.98,-0.3027620836070549
0.6000000000000001,-0.98,-0.2243657366518101
0.6200000000000001,-0.98,-0.1424310079999716
0.6400000000000001,-0.98,-0.058250057267813585
0.6600000000000001,-0.98,0.02684953166435554
0.6799999999999999,-0.98,0.11152568744304509
0.7,-0.98,0.19444301650854134
0.72,-0.98,0.27429386304907
0.74,-0.98,0.3498189315141032
0.76,-0.98,0.4198271464574588
0.78,-0.98,0.48321443650859935
0.8,-0.98,0.5389811462376869
0.8200000000000001,-0.98,0.5862478013188757
0.8400000000000001,-0.98,0.6242689783658046
0.8600000000000001,-0.98,0.6524450607036928
0.8800000000000001,-0.98,0.6703316946824966
0.9000000000000001,-0.98,0.6776467973994128
0.9199999999999999,-0.98,0.6742750053147647
0.94,-0.98,0.6602694936039393
0.96,-0.98,0.6358511375531024
0.98,-0.98,0.6014050292239956
1.0,-0.98,0.5574744043220756

-1.0,-0.96,0.49558268013218765
-0.98,-0.96,0.44406950402005246
-0.96,-0.96,0.38555308655525755
-0.94,-0.96,0.32095626659723586
-0.92,-0.96,0.251297774584996
-0.9,-0.96,0.17767616654953647
-0.88,-0.96,0.10125249922899343
-0.86,-0.96,0.023232019510298
-0.84,-0.96,-0.055154843034210685
-0.8200000000000001,-0.96,-0.1326718807561638
-0.8,-0.96,-0.20809660366425206
-0.78,-0.96,-0.28023951882166964
-0.76,-0.96,-0.3479628893602954
-0.74,-0.96,-0.4101986772707549
-0.72,-0.96,-0.4659653869998423
-0.7,-0.96,-0.5143835442217124
-0.6799999999999999,-0.96,-0.5546895656733708
-0.6599999999999999,-0.96,-0.5862478013188753
-0.64,-0.96,-0.6085605589301196
-0.62,-0.96,-0.6212759529905789
-0.6,-0.96,-0.6241934541401117
-0.5800000000000001,-0.96,-0.6172670516427597
-0.56,-0.96,-0.6006059790035381
-0.54,-0.96,-0.5744729912908099
-0.52,-0.96,-0.5392802213318953
-0.5,-0.96,-0.495582680132188
-0.48,-0.96,-0.44406950402005263
-0.45999999999999996,-0.96,-0.38555308655525766
-0.43999999999999995,-0.96,-0.3209562665972359
-0.42000000000000004,-0.96,-0.25129777458499597
-0.4,-0.96,-0.17767616654953647
-0.38,-0.96,-0.10125249922899347
-0.36,-0.96,-0.02323201951029798
-0.33999999999999997,-0.96,0.055154843034210796
-0.31999999999999995,-0.96,0.13267188075616387
-0.29999999999999993,-0.96,0.20809660366425217
-0.28,-0.96,0.2802395188216697
-0.26,-0.96,0.3479628893602955
-0.24,-0.96,0.410198677270755
-0.21999999999999997,-0.96,0.46596538699984236
-0.19999999999999996,-0.96,0.5143835442217124
-0.17999999999999994,-0.96,0.5546895656733708
-0.16000000000000003,-0.96,0.5862478013188753
-0.14,-0.96,0.6085605589301196
-0.12,-0.96,0.621275952990579
-0.09999999999999998,-0.96,0.6241934541401118
-0.07999999999999996,-0.96,0.6172670516427593
-0.05999999999999994,-0.96,0.6006059790035381
-0.040000000000000036,-0.96,0.5744729912908098
-0.020000000000000018,-0.96,0.5392802213318951
0.0,-0.96,0.49558268013218776
0.020000000000000018,-0.96,0.4440695040200527
0.040000000000000036,-0.96,0.38555308655525744
0.06000000000000005,-0.96,0.3209562665972358
0.08000000000000007,-0.96,0.25129777458499597
0.10000000000000009,-0.96,0.17767616654953644
0.1200000000000001,-0.96,0.10125249922899343
0.14000000000000012,-0.96,0.02323201951029791
0.15999999999999992,-0.96,-0.05515484303421081
0.17999999999999994,-0.96,-0.13267188075616385
0.19999999999999996,-0.96,-0.20809660366425212
0.21999999999999997,-0.96,-0.2802395188216697
0.24,-0.96,-0.3479628893602954
0.26,-0.96,-0.4101986772707549
0.28,-0.96,-0.4659653869998422
0.30000000000000004,-0.96,-0.5143835442217123
0.32000000000000006,-0.96,-0.5546895656733708
0.3400000000000001,-0.96,-0.5862478013188752
0.3600000000000001,-0.96,-0.6085605589301195
0.3800000000000001,-0.96,-0.621275952990579
0.40000000000000013,-0.96,-0.6241934541401116
0.41999999999999993,-0.96,-0.6172670516427594
0.43999999999999995,-0.96,-0.6006059790035378
0.45999999999999996,-0.96,-0.57447299129081
0.48,-0.96,-0.5392802213318951
0.5,-0.96,-0.4955826801321879
0.52,-0.96,-0.44406950402005246
0.54,-0.96,-0.3855530865552572
0.56,-0.96,-0.3209562665972359
0.5800000000000001,-0.96,-0.25129777458499597
0.6000000000000001,-0.96,-0.17767616654953636
0.6200000000000001,-0.96,-0.1012524992289934
0.6400000000000001,-0.96,-0.023232019510297887
0.6600000000000001,-0.96,0.055154843034210865
0.6799999999999999,-0.96,0.13267188075616385
0.7,-0.96,0.20809660366425214
0.72,-0.96,0.28023951882166964
0.74,-0.96,0.3479628893602955
0.76,-0.96,0.41019867727075493
0.78,-0.96,0.4659653869998423
0.8,-0.96,0.5143835442217124
0.8200000000000001,-0.96,0.554689565673371
0.8400000000000001,-0.96,0.5862478013188752
0.8600000000000001,-0.96,0.6085605589301196
0.8800000000000001,-0.96,0.6212759529905792
0.9000000000000001,-0.96,0.624193454140112
0.9199999999999999,-0.96,0.6172670516427597
0.94,-0.96,0.600605979003538
0.96,-0.96,0.57447299129081
0.98,-0.96,0.5392802213318949
1.0,-0.96,0.49558268013218765

-1.0,-0.94,0.4258753210298714
-0.98,-0.94,0.37638369164251456
-0.96,-0.94,0.32095626659723586
-0.94,-0.94,0.26046716949773907
-0.92,-0.94,0.19587034953971755
-0.9,-0.94,0.12818453716217934
-0.88,-0.94,0.05847717805986277
-0.86,-0.94,-0.012152401073030868
-0.84,-0.94,-0.08259032958151036
-0.8200000000000001,-0.94,-0.1517257592554179
-0.8,-0.94,-0.21846838306929228
-0.78,-0.94,-0.2817656299754776
-0.76,-0.94,-0.3406192645783213
-0.74,-0.94,-0.3941011299026789
-0.72,-0.94,-0.4413677849838679
-0.7,-0.94,-0.4816738064355265
-0.6799999999999999,-0.94,-0.5143835442217121
-0.6599999999999999,-0.94,-0.5389811462376862
-0.64,-0.94,-0.5550786936057617
-0.62,-0.94,-0.562422318387735
-0.6,-0.94,-0.560896207233926
-0.5800000000000001,-0.94,-0.5505244278288851
-0.56,-0.94,-0.5314705493296304
-0.54,-0.94,-0.5040350627823309
-0.52,-0.94,-0.46865064219900215
-0.5,-0.94,-0.42587532102987163
-0.48,-0.94,-0.37638369164251456
-0.45999999999999996,-0.94,-0.3209562665972359
-0.43999999999999995,-0.94,-0.260467169497739
-0.42000000000000004,-0.94,-0.19587034953971755
-0.4,-0.94,-0.1281845371621794
-0.38,-0.94,-0.05847717805986277
-0.36,-0.94,0.012152401073030955
-0.33999999999999997,-0.94,0.08259032958151041
-0.31999999999999995,-0.94,0.151725759255418
-0.29999999999999993,-0.94,0.21846838306929234
-0.28,-0.94,0.28176562997547777
-0.26,-0.94,0.3406192645783215
-0.24,-0.94,0.39410112990267904
-0.21999999999999997,-0.94,0.441367784983868
-0.19999999999999996,-0.94,0.48167380643552643
-0.17999999999999994,-0.94,0.5143835442217122
-0.16000000000000003,-0.94,0.5389811462376863
-0.14,-0.94,0.5550786936057617
-0.12,-0.94,0.5624223183877353
-0.09999999999999998,-0.94,0.5608962072339257
-0.07999999999999996,-0.94,0.5505244278288851
-0.05999999999999994,-0.94,0.5314705493296304
-0.040000000000000036,-0.94,0.5040350627823307
-0.020000000000000018,-0.94,0.468650642199002
0.0,-0.94,0.42587532102987163
0.020000000000000018,-0.94,0.37638369164251445
0.040000000000000036,-0.94,0.32095626659723586
0.06000000000000005,-0.94,0.260467169497739
0.08000000000000007,-0.94,0.19587034953971755
0.10000000000000009,-0.94,0.12818453716217934
0.1200000000000001,-0.94,0.05847717805986269
0.14000000000000012,-0.94,-0.012152401073030976
0.15999999999999992,-0.94,-0.0825903295815104
0.17999999999999994,-0.94,-0.151725759255418
0.19999999999999996,-0.94,-0.21846838306929234
0.21999999999999997,-0.94,-0.28176562997547766
0.24,-0.94,-0.3406192645783213
0.26,-0.94,-0.394101129902679
0.28,-0.94,-0.4413677849838679
0.30000000000000004,-0.94,-0.4816738064355265
0.32000000000000006,-0.94,-0.514383544221712
0.3400000000000001,-0.94,-0.5389811462376863
0.3600000000000001,-0.94,-0.5550786936057617
0.3800000000000001,-0.94,-0.5624223183877349
0.40000000000000013,-0.94,-0.5608962072339259
0.41999999999999993,-0.94,-0.550524427828885
0.43999999999999995,-0.94,-0.5314705493296306
0.45999999999999996,-0.94,-0.5040350627823307
0.48,-0.94,-0.46865064219900215
0.5,-0.94,-0.42587532102987147
0.52,-0.94,-0.3763836916425143
0.54,-0.94,-0.320956266597236
0.56,-0.94,-0.260467169497739
0.5800000000000001,-0.94,-0.19587034953971744
0.6000000000000001,-0.94,-0.1281845371621793
0.6200000000000001,-0.94,-0.058477178059862675
0.6400000000000001,-0.94,0.012152401073031017
0.6600000000000001,-0.94,0.08259032958151043
0.6799999999999999,-0.94,0.15172575925541798
0.7,-0.94,0.21846838306929237
0.72,-0.94,0.28176562997547777
0.74,-0.94,0.34061926457832137
0.76,-0.94,0.394101129902679
0.78,-0.94,0.44136778498386786
0.8,-0.94,0.48167380643552665
0.8200000000000001,-0.94,0.514383544221712
0.8400000000000001,-0.94,0.5389811462376862
0.8600000000000001,-0.94,0.5550786936057619
0.8800000000000001,-0.94,0.5624223183877352
0.9000000000000001,-0.94,0.5608962072339261
0.9199999999999999,-0.94,0.550524427828885
0.94,-0.94,0.5314705493296306
0.96,-0.94,0.5040350627823306
0.98,-0.94,0.46865064219900193
1.0,-0.94,0.4258753210298714

-1.0,-0.92,0.34945165370932874
-0.98,-0.92,0.30276208360705487
-0.96,-0.92,0.251297774584996
-0.94,-0.92,0.19587034953971755
-0.92,-0.92,0.13735393207492236
-0.9,-0.92,0.07667136105004387
-0.88,-0.92,0.01477963686015505
-0.86,-0.92,-0.047345171031945577
-0.84,-0.92,-0.10872331729423809
-0.8200000000000001,-0.92,-0.16838683189463893
-0.8,-0.92,-0.22539478556664358
-0.78,-0.92,-0.278848128825944
-0.76,-0.92,-0.32790387051786113
-0.74,-0.92,-0.37178837229143435
-0.72,-0.92,-0.40980954933836333
-0.7,-0.92,-0.4413677849838677
-0.6799999999999999,-0.92,-0.46596538699984197
-0.6599999999999999,-0.92,-0.48321443650859874
-0.64,-0.92,-0.49284290569530204
-0.62,-0.92,-0.4946989478491088
-0.6,-0.92,-0.4887532920765083
-0.5800000000000001,-0.92,-0.47509970492079684
-0.56,-0.92,-0.4539535116076779
-0.54,-0.92,-0.4256482002378225
-0.52,-0.92,-0.39063016248030696
-0.5,-0.92,-0.3494516537093287
-0.48,-0.92,-0.3027620836070549
-0.45999999999999996,-0.92,-0.251297774584996
-0.43999999999999995,-0.92,-0.19587034953971755
-0.42000000000000004,-0.92,-0.1373539320749224
-0.4,-0.92,-0.07667136105004385
-0.38,-0.92,-0.014779636860154977
-0.36,-0.92,0.04734517103194562
-0.33999999999999997,-0.92,0.10872331729423818
-0.31999999999999995,-0.92,0.16838683189463904
-0.29999999999999993,-0.92,0.22539478556664372
-0.28,-0.92,0.2788481288259442
-0.26,-0.92,0.3279038705178613
-0.24,-0.92,0.3717883722914344
-0.21999999999999997,-0.92,0.4098095493383632
-0.19999999999999996,-0.92,0.44136778498386775
-0.17999999999999994,-0.92,0.465965386999842
-0.16000000000000003,-0.92,0.4832144365085987
-0.14,-0.92,0.49284290569530215
-0.12,-0.92,0.4946989478491086
-0.09999999999999998,-0.92,0.48875329207650825
-0.07999999999999996,-0.92,0.4750997049207969
-0.05999999999999994,-0.92,0.4539535116076777
-0.040000000000000036,-0.92,0.42564820023782235
-0.020000000000000018,-0.92,0.39063016248030696
0.0,-0.92,0.3494516537093287
0.020000000000000018,-0.92,0.3027620836070549
0.040000000000000036,-0.92,0.251297774584996
0.06000000000000005,-0.92,0.19587034953971755
0.08000000000000007,-0.92,0.13735393207492236
0.10000000000000009,-0.92,0.0766713610500438
0.1200000000000001,-0.92,0.01477963686015496
0.14000000000000012,-0.92,-0.04734517103194562
0.15999999999999992,-0.92,-0.1087233172942382
0.17999999999999994,-0.92,-0.16838683189463902
0.19999999999999996,-0.92,-0.22539478556664366
0.21999999999999997,-0.92,-0.27884812882594395
0.24,-0.92,-0.3279038705178613
0.26,-0.92,-0.37178837229143435
0.28,-0.92,-0.4098095493383633
0.30000000000000004,-0.92,-0.4413677849838677
0.32000000000000006,-0.92,-0.465965386999842
0.3400000000000001,-0.92,-0.48321443650859863
0.3600000000000001,-0.92,-0.49284290569530187
0.3800000000000001,-0.92,-0.49469894784910873
0.40000000000000013,-0.92,-0.4887532920765082
0.41999999999999993,-0.92,-0.47509970492079684
0.43999999999999995,-0.92,-0.4539535116076777
0.45999999999999996,-0.92,-0.4256482002378225
0.48,-0.92,-0.3906301624803069
0.5,-0.92,-0.3494516537093285
0.52,-0.92,-0.3027620836070549
0.54,-0.92,-0.251297774584996
0.56,-0.92,-0.19587034953971744
0.5800000000000001,-0.92,-0.13735393207492239
0.6000000000000001,-0.92,-0.07667136105004377
0.6200000000000001,-0.92,-0.014779636860154925
0.6400000000000001,-0.92,0.04734517103194563
0.6600000000000001,-0.92,0.10872331729423818
0.6799999999999999,-0.92,0.16838683189463904
0.7,-0.92,0.22539478556664372
0.72,-0.92,0.27884812882594406
0.74,-0.92,0.32790387051786135
0.76,-0.92,0.37178837229143435
0.78,-0.92,0.40980954933836344
0.8,-0.92,0.44136778498386764
0.8200000000000001,-0.92,0.46596538699984197
0.8400000000000001,-0.92,0.4832144365085988
0.8600000000000001,-0.92,0.4928429056953021
0.8800000000000001,-0.92,0.49469894784910884
0.9000000000000001,-0.92,0.48875329207650814
0.9199999999999999,-0.92,0.47509970492079695
0.94,-0.92,0.45395351160767766
0.96,-0.92,0.42564820023782235
0.98,-0.92,0.39063016248030674
1.0,-0.92,0.34945165370932874

-1.0,-0.9,0.26751692505749036
-0.98,-0.9,0.22436573665181017
-0.96,-0.9,0.17767616654953647
-0.94,-0.9,0.12818453716217937
-0.92,-0.9,0.07667136105004385
-0.9,-0.9,0.023949031772898078
-0.88,-0.9,-0.029150988041764473
-0.86,-0.9,-0.08179127936105218
-0.84,-0.9,-0.13314167334507418
-0.8200000000000001,-0.9,-0.1823923436054639
-0.8,-0.9,-0.22876657765129074
-0.78,-0.9,-0.27153302610902713
-0.76,-0.9,-0.31001723653905705
-0.74,-0.9,-0.34361228995354565
-0.72,-0.9,-0.37178837229143424
-0.7,-0.9,-0.3941011299026787
-0.6799999999999999,-0.9,-0.41019867727075443
-0.6599999999999999,-0.9,-0.4198271464574579
-0.64,-0.9,-0.4228346907519458
-0.62,-0.9,-0.41917387938407513
-0.6,-0.9,-0.40890244553597954
-0.5800000000000001,-0.9,-0.39218237585530086
-0.56,-0.9,-0.3692773558289887
-0.54,-0.9,-0.3405486113056538
-0.52,-0.9,-0.3064492117481491
-0.5,-0.9,-0.26751692505749025
-0.48,-0.9,-0.2243657366518102
-0.45999999999999996,-0.9,-0.1776761665495365
-0.43999999999999995,-0.9,-0.12818453716217942
-0.42000000000000004,-0.9,-0.07667136105004385
-0.4,-0.9,-0.02394903177289802
-0.38,-0.9,0.029150988041764494
-0.36,-0.9,0.08179127936105224
-0.33999999999999997,-0.9,0.1331416733450743
-0.31999999999999995,-0.9,0.182392343605464
-0.29999999999999993,-0.9,0.22876657765129085
-0.28,-0.9,0.27153302610902724
-0.26,-0.9,0.3100172365390571
-0.24,-0.9,0.3436122899535456
-0.21999999999999997,-0.9,0.37178837229143424
-0.19999999999999996,-0.9,0.3941011299026788
-0.17999999999999994,-0.9,0.41019867727075443
-0.16000000000000003,-0.9,0.419827146457458
-0.14,-0.9,0.42283469075194585
-0.12,-0.9,0.4191738793840751
-0.09999999999999998,-0.9,0.40890244553597954
-0.07999999999999996,-0.9,0.39218237585530075
-0.05999999999999994,-0.9,0.36927735582898846
-0.040000000000000036,-0.9,0.3405486113056538
-0.020000000000000018,-0.9,0.3064492117481491
0.0,-0.9,0.2675169250574903
0.020000000000000018,-0.9,0.22436573665181014
0.040000000000000036,-0.9,0.17767616654953647
0.06000000000000005,-0.9,0.12818453716217937
0.08000000000000007,-0.9,0.0766713610500438
0.10000000000000009,-0.9,0.023949031772898
0.1200000000000001,-0.9,-0.029150988041764494
0.14000000000000012,-0.9,-0.08179127936105228
0.15999999999999992,-0.9,-0.13314167334507426
0.17999999999999994,-0.9,-0.182392343605464
0.19999999999999996,-0.9,-0.22876657765129077
0.21999999999999997,-0.9,-0.27153302610902724
0.24,-0.9,-0.31001723653905705
0.26,-0.9,-0.3436122899535456
0.28,-0.9,-0.3717883722914342
0.30000000000000004,-0.9,-0.39410112990267887
0.32000000000000006,-0.9,-0.4101986772707543
0.3400000000000001,-0.9,-0.4198271464574577
0.3600000000000001,-0.9,-0.4228346907519459
0.3800000000000001,-0.9,-0.419173879384075
0.40000000000000013,-0.9,-0.40890244553597954
0.41999999999999993,-0.9,-0.3921823758553008
0.43999999999999995,-0.9,-0.36927735582898863
0.45999999999999996,-0.9,-0.3405486113056537
0.48,-0.9,-0.306449211748149
0.5,-0.9,-0.26751692505749036
0.52,-0.9,-0.22436573665181017
0.54,-0.9,-0.17767616654953639
0.56,-0.9,-0.12818453716217937
0.5800000000000001,-0.9,-0.0766713610500438
0.6000000000000001,-0.9,-0.02394903177289798
0.6200000000000001,-0.9,0.029150988041764508
0.6400000000000001,-0.9,0.08179127936105227
0.6600000000000001,-0.9,0.1331416733450743
0.6799999999999999,-0.9,0.18239234360546402
0.7,-0.9,0.22876657765129077
0.72,-0.9,0.27153302610902724
0.74,-0.9,0.31001723653905705
0.76,-0.9,0.3436122899535457
0.78,-0.9,0.37178837229143413
0.8,-0.9,0.39410112990267876
0.8200000000000001,-0.9,0.4101986772707545
0.8400000000000001,-0.9,0.4198271464574579
0.8600000000000001,-0.9,0.42283469075194596
0.8800000000000001,-0.9,0.41917387938407497
0.9000000000000001,-0.9,0.40890244553597954
0.9199999999999999,-0.9,0.3921823758553007
0.94,-0.9,0.36927735582898846
0.96,-0.9,0.3405486113056536
0.98,-0.9,0.3064492117481491
1.0,-0.9,0.26751692505749036

-1.0,-0.88,0.18136329469063045
-0.98,-0.88,0.14243100799997171
-0.96,-0.88,0.10125249922899346
-0.94,-0.88,0.05847717805986277
-0.92,-0.88,0.014779636860155033
-0.9,-0.88,-0.029150988041764476
-0.88,-0.88,-0.07262188444830915
-0.86,-0.88,-0.1149474903548931
-0.84,-0.88,-0.15546030567227806
-0.8200000000000001,-0.88,-0.1935214191017261
-0.8,-0.88,-0.22853058414784744
-0.78,-0.88,-0.25993568536440376
-0.76,-0.88,-0.2872414455447116
-0.74,-0.88,-0.31001723653905694
-0.72,-0.88,-0.327903870517861
-0.7,-0.88,-0.3406192645783209
-0.6799999999999999,-0.88,-0.34796288936029474
-0.6599999999999999,-0.88,-0.3498189315141017
-0.64,-0.88,-0.34615812014623104
-0.62,-0.88,-0.3370381884388166
-0.6,-0.88,-0.32260296316286763
-0.5800000000000001,-0.88,-0.3030800964441712
-0.56,-0.88,-0.27877747555327664
-0.54,-0.88,-0.2500783673393151
-0.52,-0.88,-0.21743537388283707
-0.5,-0.88,-0.18136329469063048
-0.48,-0.88,-0.14243100799997177
-0.45999999999999996,-0.88,-0.10125249922899351
-0.43999999999999995,-0.88,-0.05847717805986278
-0.42000000000000004,-0.88,-0.014779636860154988
-0.4,-0.88,0.029150988041764483
-0.38,-0.88,0.07262188444830918
-0.36,-0.88,0.11494749035489316
-0.33999999999999997,-0.88,0.15546030567227812
-0.31999999999999995,-0.88,0.19352141910172618
-0.29999999999999993,-0.88,0.22853058414784755
-0.28,-0.88,0.2599356853644038
-0.26,-0.88,0.2872414455447115
-0.24,-0.88,0.31001723653905694
-0.21999999999999997,-0.88,0.3279038705178612
-0.19999999999999996,-0.88,0.3406192645783209
-0.17999999999999994,-0.88,0.3479628893602949
-0.16000000000000003,-0.88,0.3498189315141017
-0.14,-0.88,0.34615812014623104
-0.12,-0.88,0.33703818843881667
-0.09999999999999998,-0.88,0.3226029631628676
-0.07999999999999996,-0.88,0.30308009644417105
-0.05999999999999994,-0.88,0.2787774755532766
-0.040000000000000036,-0.88,0.2500783673393151
-0.020000000000000018,-0.88,0.21743537388283707
0.0,-0.88,0.18136329469063042
0.020000000000000018,-0.88,0.14243100799997174
0.040000000000000036,-0.88,0.10125249922899347
0.06000000000000005,-0.88,0.05847717805986272
0.08000000000000007,-0.88,0.014779636860154974
0.10000000000000009,-0.88,-0.029150988041764483
0.1200000000000001,-0.88,-0.07262188444830923
0.14000000000000012,-0.88,-0.11494749035489314
0.15999999999999992,-0.88,-0.15546030567227814
0.17999999999999994,-0.88,-0.19352141910172613
0.19999999999999996,-0.88,-0.22853058414784755
0.21999999999999997,-0.88,-0.25993568536440376
0.24,-0.88,-0.2872414455447115
0.26,-0.88,-0.31001723653905694
0.28,-0.88,-0.3279038705178612
0.30000000000000004,-0.88,-0.34061926457832087
0.32000000000000006,-0.88,-0.3479628893602946
0.3400000000000001,-0.88,-0.3498189315141018
0.3600000000000001,-0.88,-0.34615812014623104
0.3800000000000001,-0.88,-0.3370381884388166
0.40000000000000013,-0.88,-0.3226029631628676
0.41999999999999993,-0.88,-0.30308009644417117
0.43999999999999995,-0.88,-0.27877747555327664
0.45999999999999996,-0.88,-0.25007836733931504
0.48,-0.88,-0.21743537388283712
0.5,-0.88,-0.18136329469063045
0.52,-0.88,-0.1424310079999717
0.54,-0.88,-0.10125249922899347
0.56,-0.88,-0.058477178059862696
0.5800000000000001,-0.88,-0.01477963686015497
0.6000000000000001,-0.88,0.029150988041764497
0.6200000000000001,-0.88,0.07262188444830922
0.6400000000000001,-0.88,0.11494749035489318
0.6600000000000001,-0.88,0.15546030567227814
0.6799999999999999,-0.88,0.19352141910172616
0.7,-0.88,0.22853058414784758
0.72,-0.88,0.25993568536440376
0.74,-0.88,0.2872414455447116
0.76,-0.88,0.3100172365390569
0.78,-0.88,0.3279038705178611
0.8,-0.88,0.340619264578321
0.8200000000000001,-0.88,0.34796288936029474
0.8400000000000001,-0.88,0.3498189315141018
0.8600000000000001,-0.88,0.3461581201462309
0.8800000000000001,-0.88,0.33703818843881655
0.9000000000000001,-0.88,0.3226029631628675
0.9199999999999999,-0.88,0.30308009644417105
0.94,-0.88,0.27877747555327653
0.96,-0.88,0.25007836733931516
0.98,-0.88,0.21743537388283712
1.0,-0.88,0.18136329469063045

-1.0,-0.86,0.0923494568253184
-0.98,-0.86,0.058250057267813654
-0.96,-0.86,0.02323201951029798
-0.94,-0.86,-0.012152401073030908
-0.92,-0.86,-0.047345171031945577
-0.9,-0.86,-0.08179127936105218
-0.88,-0.86,-0.11494749035489311
-0.86,-0.86,-0.14629091075953507
-0.84,-0.86,-0.17532723611154508
-0.8200000000000001,-0.86,-0.2015985462146616
-0.8,-0.86,-0.2246905268148391
-0.78,-0.86,-0.24423900358353184
-0.76,-0.86,-0.2599356853644036
-0.74,-0.86,-0.27153302610902696
-0.72,-0.86,-0.27884812882594356
-0.7,-0.86,-0.28176562997547705
-0.6799999999999999,-0.86,-0.28023951882166837
-0.6599999999999999,-0.86,-0.2742938630490681
-0.64,-0.86,-0.2640224292009725
-0.62,-0.86,-0.24958720392502348
-0.6,-0.86,-0.23121583934700818
-0.5800000000000001,-0.86,-0.20919806286084325
-0.56,-0.86,-0.18388110795449747
-0.54,-0.86,-0.1556642381304598
-0.52,-0.86,-0.12499245028179642
-0.5,-0.86,-0.09234945682531842
-0.48,-0.86,-0.05825005726781369
-0.45999999999999996,-0.86,-0.023232019510297998
-0.43999999999999995,-0.86,0.012152401073030943
-0.42000000000000004,-0.86,0.0473451710319456
-0.4,-0.86,0.08179127936105221
-0.38,-0.86,0.11494749035489314
-0.36,-0.86,0.1462909107595351
-0.33999999999999997,-0.86,0.17532723611154513
-0.31999999999999995,-0.86,0.20159854621466172
-0.29999999999999993,-0.86,0.2246905268148392
-0.28,-0.86,0.24423900358353176
-0.26,-0.86,0.25993568536440365
-0.24,-0.86,0.2715330261090271
-0.21999999999999997,-0.86,0.2788481288259436
-0.19999999999999996,-0.86,0.28176562997547716
-0.17999999999999994,-0.86,0.2802395188216684
-0.16000000000000003,-0.86,0.274293863049068
-0.14,-0.86,0.2640224292009725
-0.12,-0.86,0.24958720392502345
-0.09999999999999998,-0.86,0.23121583934700807
-0.07999999999999996,-0.86,0.20919806286084325
-0.05999999999999994,-0.86,0.18388110795449747
-0.040000000000000036,-0.86,0.15566423813045982
-0.020000000000000018,-0.86,0.12499245028179637
0.0,-0.86,0.0923494568253184
0.020000000000000018,-0.86,0.05825005726781366
0.040000000000000036,-0.86,0.023232019510297935
0.06000000000000005,-0.86,-0.01215240107303095
0.08000000000000007,-0.86,-0.047345171031945577
0.10000000000000009,-0.86,-0.08179127936105227
0.1200000000000001,-0.86,-0.11494749035489314
0.14000000000000012,-0.86,-0.14629091075953515
0.15999999999999992,-0.86,-0.1753272361115451
0.17999999999999994,-0.86,-0.20159854621466172
0.19999999999999996,-0.86,-0.22469052681483906
0.21999999999999997,-0.86,-0.24423900358353176
0.24,-0.86,-0.2599356853644036
0.26,-0.86,-0.271533026109027
0.28,-0.86,-0.2788481288259435
0.30000000000000004,-0.86,-0.28176562997547694
0.32000000000000006,-0.86,-0.2802395188216685
0.3400000000000001,-0.86,-0.27429386304906805