TITLE = "Solution" 
VARIABLES = "x", "y", "sol" 
ZONE STRANDID=1, SOLUTIONTIME= 0.9200000000000006, I= 101, J =101, DATAPACKING=POINT 
-1.0,-1.0,-0.026554431863768106
-0.98,-1.0,0.026566132308806473
-0.96,-1.0,0.07926773270503304
-0.94,-1.0,0.13071923360425292
-0.92,-1.0,0.1801092141016489
-0.9,-1.0,0.22665876470063243
-0.88,-1.0,0.26963377118090387
-0.86,-1.0,0.3083564920182452
-0.84,-1.0,0.3422162467732193
-0.8200000000000001,-1.0,0.37067904688650294
-0.8,-1.0,0.3932960169974567
-0.78,-1.0,0.4097104739767079
-0.76,-1.0,0.4196635520321725
-0.74,-1.0,0.42299828517723514
-0.72,-1.0,0.419662082678126
-0.7,-1.0,0.40970755844120654
-0.6799999999999999,-1.0,0.3932917012602374
-0.6599999999999999,-1.0,0.37067339900931984
-0.64,-1.0,0.3422093558264699
-0.62,-1.0,0.3083484666762759
-0.6,-1.0,0.2696247380081516
-0.5800000000000001,-1.0,0.22664886615562754
-0.56,-1.0,0.18009860629035943
-0.54,-1.0,0.13070808381819965
-0.52,-1.0,0.07925621678300236
-0.5,-1.0,0.02655443186376819
-0.48,-1.0,-0.026566132308806376
-0.45999999999999996,-1.0,-0.0792677327050329
-0.43999999999999995,-1.0,-0.1307192336042529
-0.42000000000000004,-1.0,-0.18010921410164876
-0.4,-1.0,-0.2266587647006325
-0.38,-1.0,-0.269633771180904
-0.36,-1.0,-0.3083564920182455
-0.33999999999999997,-1.0,-0.3422162467732195
-0.31999999999999995,-1.0,-0.3706790468865029
-0.29999999999999993,-1.0,-0.39329601699745675
-0.28,-1.0,-0.40971047397670807
-0.26,-1.0,-0.4196635520321725
-0.24,-1.0,-0.42299828517723526
-0.21999999999999997,-1.0,-0.4196620826781261
-0.19999999999999996,-1.0,-0.40970755844120677
-0.17999999999999994,-1.0,-0.3932917012602375
-0.16000000000000003,-1.0,-0.3706733990093199
-0.14,-1.0,-0.3422093558264699
-0.12,-1.0,-0.30834846667627597
-0.09999999999999998,-1.0,-0.2696247380081517
-0.07999999999999996,-1.0,-0.22664886615562757
-0.05999999999999994,-1.0,-0.18009860629035943
-0.040000000000000036,-1.0,-0.13070808381819962
-0.020000000000000018,-1.0,-0.07925621678300235
0.0,-1.0,-0.026554431863768085
0.020000000000000018,-1.0,0.02656613230880641
0.040000000000000036,-1.0,0.07926773270503301
0.06000000000000005,-1.0,0.13071923360425303
0.08000000000000007,-1.0,0.18010921410164876
0.10000000000000009,-1.0,0.22665876470063248
0.1200000000000001,-1.0,0.26963377118090404
0.14000000000000012,-1.0,0.3083564920182455
0.15999999999999992,-1.0,0.34221624677321943
0.17999999999999994,-1.0,0.370679046886503
0.19999999999999996,-1.0,0.3932960169974567
0.21999999999999997,-1.0,0.4097104739767081
0.24,-1.0,0.41966355203217265
0.26,-1.0,0.42299828517723514
0.28,-1.0,0.4196620826781263
0.30000000000000004,-1.0,0.40970755844120677
0.32000000000000006,-1.0,0.3932917012602374
0.3400000000000001,-1.0,0.37067339900931984
0.3600000000000001,-1.0,0.34220935582646983
0.3800000000000001,-1.0,0.308348466676276
0.40000000000000013,-1.0,0.2696247380081516
0.41999999999999993,-1.0,0.2266488661556275
0.43999999999999995,-1.0,0.18009860629035937
0.45999999999999996,-1.0,0.13070808381819954
0.48,-1.0,0.07925621678300229
0.5,-1.0,0.026554431863768133
0.52,-1.0,-0.02656613230880643
0.54,-1.0,-0.07926773270503293
0.56,-1.0,-0.1307192336042529
0.5800000000000001,-1.0,-0.18010921410164885
0.6000000000000001,-1.0,-0.22665876470063243
0.6200000000000001,-1.0,-0.26963377118090404
0.6400000000000001,-1.0,-0.30835649201824544
0.6600000000000001,-1.0,-0.3422162467732193
0.6799999999999999,-1.0,-0.37067904688650277
0.7,-1.0,-0.39329601699745664
0.72,-1.0,-0.409710473976708
0.74,-1.0,-0.41966355203217265
0.76,-1.0,-0.42299828517723526
0.78,-1.0,-0.41966208267812616
0.8,-1.0,-0.4097075584412067
0.8200000000000001,-1.0,-0.3932917012602374
0.8400000000000001,-1.0,-0.37067339900931967
0.8600000000000001,-1.0,-0.3422093558264699
0.8800000000000001,-1.0,-0.3083484666762759
0.9000000000000001,-1.0,-0.2696247380081516
0.9199999999999999,-1.0,-0.2266488661556275
0.94,-1.0,-0.18009860629035926
0.96,-1.0,-0.1307080838181995
0.98,-1.0,-0.07925621678300229
1.0,-1.0,-0.026554431863768106

-1.0,-0.98,0.02656613230880648
-0.98,-0.98,0.08685046843825683
-0.96,-0.98,0.14576512079848078
-0.94,-0.98,0.20238097012785058
-0.92,-0.98,0.25580515066177256
-0.9,-0.98,0.30519513115916824
-0.88,-0.98,0.3497720021234499
-0.86,-0.98,0.3888327596705787
-0.84,-0.98,0.4217613923202707
-0.8200000000000001,-0.98,0.44803859586502826
-0.8,-0.98,0.4672499631077101
-0.78,-0.98,0.4790925193105847
-0.76,-0.98,0.48337950028793236
-0.74,-0.98,0.4800432977888231
-0.72,-0.98,0.4691365257196184
-0.7,-0.98,0.4508311903912391
-0.6799999999999999,-0.98,0.4254159778768909
-0.6599999999999999,-0.98,0.39329170126023727
-0.64,-0.98,0.3549649795736351
-0.62,-0.98,0.3110402481133561
-0.6,-0.98,0.2622102261338917
-0.5800000000000001,-0.98,0.2092449922514994
-0.56,-0.98,0.15297983984440122
-0.54,-0.98,0.0943021039772302
-0.52,-0.98,0.034137167596991966
-0.5,-0.98,-0.02656613230880637
-0.48,-0.98,-0.0868504684382567
-0.45999999999999996,-0.98,-0.14576512079848075
-0.43999999999999995,-0.98,-0.20238097012785042
-0.42000000000000004,-0.98,-0.2558051506617727
-0.4,-0.98,-0.30519513115916835
-0.38,-0.98,-0.3497720021234501
-0.36,-0.98,-0.3888327596705788
-0.33999999999999997,-0.98,-0.42176139232027066
-0.31999999999999995,-0.98,-0.44803859586502826
-0.29999999999999993,-0.98,-0.4672499631077103
-0.28,-0.98,-0.4790925193105848
-0.26,-0.98,-0.4833795002879325
-0.24,-0.98,-0.48004329778882315
-0.21999999999999997,-0.98,-0.4691365257196186
-0.19999999999999996,-0.98,-0.4508311903912392
-0.17999999999999994,-0.98,-0.425415977876891
-0.16000000000000003,-0.98,-0.3932917012602372
-0.14,-0.98,-0.3549649795736351
-0.12,-0.98,-0.3110402481133561
-0.09999999999999998,-0.98,-0.2622102261338918
-0.07999999999999996,-0.98,-0.20924499225149934
-0.05999999999999994,-0.98,-0.15297983984440114
-0.040000000000000036,-0.98,-0.0943021039772302
-0.020000000000000018,-0.98,-0.03413716759699187
0.0,-0.98,0.026566132308806407
0.020000000000000018,-0.98,0.08685046843825678
0.040000000000000036,-0.98,0.1457651207984809
0.06000000000000005,-0.98,0.2023809701278504
0.08000000000000007,-0.98,0.2558051506617726
0.10000000000000009,-0.98,0.30519513115916846
0.1200000000000001,-0.98,0.3497720021234501
0.14000000000000012,-0.98,0.38883275967057884
0.15999999999999992,-0.98,0.42176139232027077
0.17999999999999994,-0.98,0.44803859586502826
0.19999999999999996,-0.98,0.4672499631077104
0.21999999999999997,-0.98,0.4790925193105847
0.24,-0.98,0.4833795002879323
0.26,-0.98,0.48004329778882343
0.28,-0.98,0.46913652571961856
0.30000000000000004,-0.98,0.4508311903912391
0.32000000000000006,-0.98,0.4254159778768909
0.3400000000000001,-0.98,0.39329170126023716
0.3600000000000001,-0.98,0.35496497957363526
0.3800000000000001,-0.98,0.3110402481133561
0.40000000000000013,-0.98,0.26221022613389167
0.41999999999999993,-0.98,0.20924499225149928
0.43999999999999995,-0.98,0.15297983984440106
0.45999999999999996,-0.98,0.09430210397723013
0.48,-0.98,0.034137167596991924
0.5,-0.98,-0.026566132308806424
0.52,-0.98,-0.08685046843825672
0.54,-0.98,-0.14576512079848078
0.56,-0.98,-0.20238097012785047
0.5800000000000001,-0.98,-0.25580515066177256
0.6000000000000001,-0.98,-0.3051951311591684
0.6200000000000001,-0.98,-0.3497720021234501
0.6400000000000001,-0.98,-0.3888327596705787
0.6600000000000001,-0.98,-0.42176139232027043
0.6799999999999999,-0.98,-0.44803859586502814
0.7,-0.98,-0.46724996310771016
0.72,-0.98,-0.4790925193105849
0.74,-0.98,-0.48337950028793253
0.76,-0.98,-0.48004329778882326
0.78,-0.98,-0.4691365257196185
0.8,-0.98,-0.45083119039123914
0.8200000000000001,-0.98,-0.4254159778768907
0.8400000000000001,-0.98,-0.3932917012602373
0.8600000000000001,-0.98,-0.3549649795736352
0.8800000000000001,-0.98,-0.3110402481133562
0.9000000000000001,-0.98,-0.26221022613389167
0.9199999999999999,-0.98,-0.20924499225149917
0.94,-0.98,-0.15297983984440106
0.96,-0.98,-0.09430210397723011
0.98,-0.98,-0.03413716759699188
1.0,-0.98,0.02656613230880648

-1.0,-0.96,0.07926773270503307
-0.98,-0.96,0.14576512079848078
-0.96,-0.96,0.20996370586107438
-0.94,-0.96,0.2708510378560004
-0.92,-0.96,0.3274668871853699
-0.9,-0.96,0.37891838808459005
-0.88,-0.96,0.4243941196488431
-0.86,-0.96,0.46317690242547555
-0.84,-0.96,0.49465510876238783
-0.8200000000000001,-0.96,0.5183323085414779
-0.8,-0.96,0.5338350981781563
-0.78,-0.96,0.5409189894189347
-0.76,-0.96,0.5394722650672352
-0.74,-0.96,0.5295177408303156
-0.72,-0.96,0.5112124055019361
-0.7,-0.96,0.48484494515530263
-0.6799999999999999,-0.96,0.450831190391239
-0.6599999999999999,-0.96,0.40970755844120627
-0.64,-0.96,0.36212259354712356
-0.62,-0.96,0.3088267390312507
-0.6,-0.96,0.25066050235670373
-0.5800000000000001,-0.96,0.18854119982266532
-0.56,-0.96,0.12344848993837015
-0.54,-0.96,0.05640892362319355
-0.52,-0.96,-0.011520245114578519
-0.5,-0.96,-0.07926773270503287
-0.48,-0.96,-0.14576512079848072
-0.45999999999999996,-0.96,-0.2099637058610742
-0.43999999999999995,-0.96,-0.27085103785600056
-0.42000000000000004,-0.96,-0.32746688718537004
-0.4,-0.96,-0.3789183880845902
-0.38,-0.96,-0.4243941196488432
-0.36,-0.96,-0.46317690242547543
-0.33999999999999997,-0.96,-0.4946551087623877
-0.31999999999999995,-0.96,-0.5183323085414782
-0.29999999999999993,-0.96,-0.5338350981781564
-0.28,-0.96,-0.5409189894189348
-0.26,-0.96,-0.5394722650672352
-0.24,-0.96,-0.5295177408303157
-0.21999999999999997,-0.96,-0.5112124055019363
-0.19999999999999996,-0.96,-0.4848449451553028
-0.17999999999999994,-0.96,-0.4508311903912389
-0.16000000000000003,-0.96,-0.4097075584412062
-0.14,-0.96,-0.3621225935471237
-0.12,-0.96,-0.30882673903125074
-0.09999999999999998,-0.96,-0.2506605023567036
-0.07999999999999996,-0.96,-0.18854119982266523
-0.05999999999999994,-0.96,-0.12344848993837015
-0.040000000000000036,-0.96,-0.05640892362319347
-0.020000000000000018,-0.96,0.011520245114578546
0.0,-0.96,0.07926773270503298
0.020000000000000018,-0.96,0.14576512079848086
0.040000000000000036,-0.96,0.20996370586107416
0.06000000000000005,-0.96,0.27085103785600056
0.08000000000000007,-0.96,0.32746688718537015
0.10000000000000009,-0.96,0.3789183880845903
0.1200000000000001,-0.96,0.4243941196488433
0.14000000000000012,-0.96,0.4631769024254756
0.15999999999999992,-0.96,0.4946551087623877
0.17999999999999994,-0.96,0.5183323085414782
0.19999999999999996,-0.96,0.5338350981781563
0.21999999999999997,-0.96,0.5409189894189346
0.24,-0.96,0.5394722650672354
0.26,-0.96,0.5295177408303157
0.28,-0.96,0.5112124055019361
0.30000000000000004,-0.96,0.48484494515530263
0.32000000000000006,-0.96,0.45083119039123887
0.3400000000000001,-0.96,0.4097075584412064
0.3600000000000001,-0.96,0.3621225935471237
0.3800000000000001,-0.96,0.30882673903125063
0.40000000000000013,-0.96,0.25066050235670356
0.41999999999999993,-0.96,0.18854119982266515
0.43999999999999995,-0.96,0.12344848993837007
0.45999999999999996,-0.96,0.05640892362319354
0.48,-0.96,-0.011520245114578567
0.5,-0.96,-0.07926773270503296
0.52,-0.96,-0.14576512079848078
0.54,-0.96,-0.20996370586107427
0.56,-0.96,-0.2708510378560005
0.5800000000000001,-0.96,-0.32746688718537004
0.6000000000000001,-0.96,-0.3789183880845902
0.6200000000000001,-0.96,-0.42439411964884316
0.6400000000000001,-0.96,-0.4631769024254752
0.6600000000000001,-0.96,-0.49465510876238766
0.6799999999999999,-0.96,-0.5183323085414779
0.7,-0.96,-0.5338350981781566
0.72,-0.96,-0.5409189894189348
0.74,-0.96,-0.5394722650672352
0.76,-0.96,-0.5295177408303156
0.78,-0.96,-0.5112124055019363
0.8,-0.96,-0.4848449451553025
0.8200000000000001,-0.96,-0.4508311903912391
0.8400000000000001,-0.96,-0.4097075584412064
0.8600000000000001,-0.96,-0.3621225935471237
0.8800000000000001,-0.96,-0.30882673903125063
0.9000000000000001,-0.96,-0.25066050235670345
0.9199999999999999,-0.96,-0.18854119982266518
0.94,-0.96,-0.12344848993837008
0.96,-0.96,-0.05640892362319348
0.98,-0.96,0.01152024511457863
1.0,-0.96,0.07926773270503307

-1.0,-0.94,0.13071923360425292
-0.98,-0.94,0.20238097012785058
-0.96,-0.94,0.27085103785600034
-0.94,-0.94,0.33504962291859375
-0.92,-0.94,0.393964275278818
-0.9,-0.94,0.4466658756750448
-0.88,-0.94,0.4923232883866159
-0.86,-0.94,0.5302164687406524
-0.84,-0.94,0.5597478186466828
-0.8200000000000001,-0.94,0.5804516110755159
-0.8,-0.94,0.5920013348527029
-0.78,-0.94,0.5942148439348067
-0.76,-0.94,0.5870572299613176
-0.74,-0.94,0.5706413727803481
-0.72,-0.94,0.5452261602659997
-0.7,-0.94,0.5112124055019359
-0.6799999999999999,-0.94,0.469136525719618
-0.6599999999999999,-0.94,0.41966208267812527
-0.64,-0.94,0.36356931789882163
-0.62,-0.94,0.30174284779047084
-0.6,-0.94,0.23515771272002423
-0.5800000000000001,-0.94,0.1648640000435745
-0.56,-0.94,0.09197028360145768
-0.54,-0.94,0.017626140846561483
-0.52,-0.94,-0.056995976678831266
-0.5,-0.94,-0.13071923360425283
-0.48,-0.94,-0.20238097012785042
-0.45999999999999996,-0.94,-0.2708510378560005
-0.43999999999999995,-0.94,-0.33504962291859375
-0.42000000000000004,-0.94,-0.3939642752788181
-0.4,-0.94,-0.44666587567504495
-0.38,-0.94,-0.4923232883866157
-0.36,-0.94,-0.5302164687406523
-0.33999999999999997,-0.94,-0.559747818646683
-0.31999999999999995,-0.94,-0.580451611075516
-0.29999999999999993,-0.94,-0.5920013348527029
-0.28,-0.94,-0.5942148439348067
-0.26,-0.94,-0.5870572299613176
-0.24,-0.94,-0.5706413727803481
-0.21999999999999997,-0.94,-0.5452261602659998
-0.19999999999999996,-0.94,-0.5112124055019357
-0.17999999999999994,-0.94,-0.4691365257196179
-0.16000000000000003,-0.94,-0.41966208267812544
-0.14,-0.94,-0.36356931789882174
-0.12,-0.94,-0.30174284779047067
-0.09999999999999998,-0.94,-0.2351577127200241
-0.07999999999999996,-0.94,-0.1648640000435745
-0.05999999999999994,-0.94,-0.09197028360145763
-0.040000000000000036,-0.94,-0.017626140846561455
-0.020000000000000018,-0.94,0.05699597667883135
0.0,-0.94,0.13071923360425294
0.020000000000000018,-0.94,0.20238097012785036
0.040000000000000036,-0.94,0.2708510378560005
0.06000000000000005,-0.94,0.33504962291859386
0.08000000000000007,-0.94,0.3939642752788182
0.10000000000000009,-0.94,0.44666587567504507
0.1200000000000001,-0.94,0.49232328838661593
0.14000000000000012,-0.94,0.5302164687406523
0.15999999999999992,-0.94,0.559747818646683
0.17999999999999994,-0.94,0.580451611075516
0.19999999999999996,-0.94,0.5920013348527027
0.21999999999999997,-0.94,0.5942148439348071
0.24,-0.94,0.5870572299613176
0.26,-0.94,0.570641372780348
0.28,-0.94,0.5452261602659996
0.30000000000000004,-0.94,0.5112124055019358
0.32000000000000006,-0.94,0.469136525719618
0.3400000000000001,-0.94,0.4196620826781254
0.3600000000000001,-0.94,0.3635693178988216
0.3800000000000001,-0.94,0.3017428477904707
0.40000000000000013,-0.94,0.23515771272002403
0.41999999999999993,-0.94,0.1648640000435744
0.43999999999999995,-0.94,0.0919702836014577
0.45999999999999996,-0.94,0.017626140846561434
0.48,-0.94,-0.05699597667883135
0.5,-0.94,-0.13071923360425292
0.52,-0.94,-0.20238097012785047
0.54,-0.94,-0.27085103785600045
0.56,-0.94,-0.33504962291859386
0.5800000000000001,-0.94,-0.39396427527881805
0.6000000000000001,-0.94,-0.44666587567504484
0.6200000000000001,-0.94,-0.49232328838661554
0.6400000000000001,-0.94,-0.5302164687406522
0.6600000000000001,-0.94,-0.5597478186466828
0.6799999999999999,-0.94,-0.5804516110755162
0.7,-0.94,-0.5920013348527029
0.72,-0.94,-0.5942148439348068
0.74,-0.94,-0.5870572299613175
0.76,-0.94,-0.5706413727803481
0.78,-0.94,-0.5452261602659996
0.8,-0.94,-0.5112124055019359
0.8200000000000001,-0.94,-0.4691365257196181
0.8400000000000001,-0.94,-0.41966208267812544
0.8600000000000001,-0.94,-0.3635693178988216
0.8800000000000001,-0.94,-0.30174284779047056
0.9000000000000001,-0.94,-0.2351577127200241
0.9199999999999999,-0.94,-0.16486400004357443
0.94,-0.94,-0.09197028360145763
0.96,-0.94,-0.017626140846561365
0.98,-0.94,0.05699597667883143
1.0,-0.94,0.13071923360425292

-1.0,-0.92,0.18010921410164887
-0.98,-0.92,0.2558051506617724
-0.96,-0.92,0.32746688718536987
-0.94,-0.92,0.393964275278818
-0.92,-0.92,0.45424861140826855
-0.9,-0.92,0.5073691755808439
-0.88,-0.92,0.5524882247668541
-0.86,-0.92,0.5888942046078232
-0.84,-0.92,0.6160129710537805
-0.8200000000000001,-0.92,0.633416844957908
-0.8,-0.92,0.6408313568321664
-0.78,-0.92,0.6381395753950853
-0.76,-0.92,0.6253839516479193
-0.74,-0.92,0.6027656493970014
-0.72,-0.92,0.5706413727803474
-0.7,-0.92,0.5295177408303148
-0.6799999999999999,-0.92,0.48004329778882204
-0.6599999999999999,-0.92,0.4229982851772332
-0.64,-0.92,0.35928233692147227
-0.62,-0.92,0.289900291587595
-0.6,-0.92,0.21594634547734168
-0.5800000000000001,-0.92,0.1385867964988166
-0.56,-0.92,0.059041650951765876
-0.54,-0.92,-0.021434616700567045
-0.52,-0.92,-0.10157284764311275
-0.5,-0.92,-0.1801092141016487
-0.48,-0.92,-0.2558051506617725
-0.45999999999999996,-0.92,-0.3274668871853699
-0.43999999999999995,-0.92,-0.3939642752788181
-0.42000000000000004,-0.92,-0.4542486114082687
-0.4,-0.92,-0.5073691755808437
-0.38,-0.92,-0.5524882247668541
-0.36,-0.92,-0.5888942046078232
-0.33999999999999997,-0.92,-0.6160129710537805
-0.31999999999999995,-0.92,-0.633416844957908
-0.29999999999999993,-0.92,-0.6408313568321663
-0.28,-0.92,-0.6381395753950853
-0.26,-0.92,-0.6253839516479193
-0.24,-0.92,-0.6027656493970016
-0.21999999999999997,-0.92,-0.5706413727803474
-0.19999999999999996,-0.92,-0.5295177408303148
-0.17999999999999994,-0.92,-0.48004329778882227
-0.16000000000000003,-0.92,-0.42299828517723326
-0.14,-0.92,-0.3592823369214721
-0.12,-0.92,-0.2899002915875949
-0.09999999999999998,-0.92,-0.21594634547734165
-0.07999999999999996,-0.92,-0.13858679649881658
-0.05999999999999994,-0.92,-0.05904165095176586
-0.040000000000000036,-0.92,0.021434616700567122
-0.020000000000000018,-0.92,0.10157284764311288
0.0,-0.92,0.1801092141016487
0.020000000000000018,-0.92,0.2558051506617725
0.040000000000000036,-0.92,0.3274668871853701
0.06000000000000005,-0.92,0.3939642752788182
0.08000000000000007,-0.92,0.45424861140826883
0.10000000000000009,-0.92,0.5073691755808439
0.1200000000000001,-0.92,0.5524882247668542
0.14000000000000012,-0.92,0.5888942046078233
0.15999999999999992,-0.92,0.6160129710537806
0.17999999999999994,-0.92,0.6334168449579077
0.19999999999999996,-0.92,0.6408313568321666
0.21999999999999997,-0.92,0.6381395753950854
0.24,-0.92,0.6253839516479193
0.26,-0.92,0.6027656493970013
0.28,-0.92,0.5706413727803475
0.30000000000000004,-0.92,0.5295177408303147
0.32000000000000006,-0.92,0.4800432977888222
0.3400000000000001,-0.92,0.4229982851772331
0.3600000000000001,-0.92,0.3592823369214722
0.3800000000000001,-0.92,0.28990029158759484
0.40000000000000013,-0.92,0.21594634547734157
0.41999999999999993,-0.92,0.1385867964988167
0.43999999999999995,-0.92,0.059041650951765834
0.45999999999999996,-0.92,-0.021434616700567132
0.48,-0.92,-0.10157284764311286
0.5,-0.92,-0.1801092141016488
0.52,-0.92,-0.25580515066177245
0.54,-0.92,-0.32746688718537
0.56,-0.92,-0.393964275278818
0.5800000000000001,-0.92,-0.4542486114082686
0.6000000000000001,-0.92,-0.5073691755808435
0.6200000000000001,-0.92,-0.552488224766854
0.6400000000000001,-0.92,-0.588894204607823
0.6600000000000001,-0.92,-0.6160129710537807
0.6799999999999999,-0.92,-0.633416844957908
0.7,-0.92,-0.6408313568321665
0.72,-0.92,-0.6381395753950851
0.74,-0.92,-0.6253839516479193
0.76,-0.92,-0.6027656493970013
0.78,-0.92,-0.5706413727803477
0.8,-0.92,-0.529517740830315
0.8200000000000001,-0.92,-0.4800432977888223
0.8400000000000001,-0.92,-0.42299828517723304
0.8600000000000001,-0.92,-0.35928233692147205
0.8800000000000001,-0.92,-0.2899002915875949
0.9000000000000001,-0.92,-0.21594634547734157
0.9199999999999999,-0.92,-0.13858679649881658
0.94,-0.92,-0.05904165095176574
0.96,-0.92,0.021434616700567212
0.98,-0.92,0.10157284764311285
1.0,-0.92,0.18010921410164887

-1.0,-0.9,0.22665876470063226
-0.98,-0.9,0.3051951311591682
-0.96,-0.9,0.3789183880845901
-0.94,-0.9,0.44666587567504473
-0.92,-0.9,0.5073691755808439
-0.9,-0.9,0.560070960500078
-0.88,-0.9,0.6039400918020511
-0.86,-0.9,0.6382847270799823
-0.84,-0.9,0.6625632309190483
-0.8200000000000001,-0.9,0.6763927168104313
-0.8,-0.9,0.6795550855002903
-0.78,-0.9,0.6720004645452785
-0.76,-0.9,0.6538479948307687
-0.74,-0.9,0.6253839516479185
-0.72,-0.9,0.5870572299613163
-0.7,-0.9,0.5394722650672334
-0.6799999999999999,-0.9,0.48337950028792986
-0.6599999999999999,-0.9,0.41966355203216893
-0.64,-0.9,0.3493292588660064
-0.62,-0.9,0.27348583460834314
-0.6,-0.9,0.1933293753663875
-0.5800000000000001,-0.9,0.11012399638553313
-0.56,-0.9,0.025181896196791977
-0.54,-0.9,-0.06015733753790828
-0.52,-0.9,-0.1445478541233844
-0.5,-0.9,-0.22665876470063231
-0.48,-0.9,-0.3051951311591682
-0.45999999999999996,-0.9,-0.3789183880845901
-0.43999999999999995,-0.9,-0.44666587567504484
-0.42000000000000004,-0.9,-0.5073691755808438
-0.4,-0.9,-0.560070960500078
-0.38,-0.9,-0.6039400918020512
-0.36,-0.9,-0.6382847270799823
-0.33999999999999997,-0.9,-0.6625632309190483
-0.31999999999999995,-0.9,-0.6763927168104311
-0.29999999999999993,-0.9,-0.6795550855002902
-0.28,-0.9,-0.6720004645452785
-0.26,-0.9,-0.6538479948307689
-0.24,-0.9,-0.6253839516479185
-0.21999999999999997,-0.9,-0.5870572299613163
-0.19999999999999996,-0.9,-0.5394722650672337
-0.17999999999999994,-0.9,-0.4833795002879299
-0.16000000000000003,-0.9,-0.4196635520321687
-0.14,-0.9,-0.34932925886600624
-0.12,-0.9,-0.27348583460834314
-0.09999999999999998,-0.9,-0.19332937536638747
-0.07999999999999996,-0.9,-0.11012399638553316
-0.05999999999999994,-0.9,-0.02518189619679193
-0.040000000000000036,-0.9,0.060157337537908404
-0.020000000000000018,-0.9,0.14454785412338444
0.0,-0.9,0.22665876470063234
0.020000000000000018,-0.9,0.3051951311591683
0.040000000000000036,-0.9,0.3789183880845903
0.06000000000000005,-0.9,0.44666587567504495
0.08000000000000007,-0.9,0.5073691755808437
0.10000000000000009,-0.9,0.5600709605000781
0.1200000000000001,-0.9,0.6039400918020513
0.14000000000000012,-0.9,0.6382847270799825
0.15999999999999992,-0.9,0.6625632309190481
0.17999999999999994,-0.9,0.6763927168104314
0.19999999999999996,-0.9,0.6795550855002902
0.21999999999999997,-0.9,0.6720004645452786
0.24,-0.9,0.6538479948307687
0.26,-0.9,0.6253839516479184
0.28,-0.9,0.5870572299613163
0.30000000000000004,-0.9,0.5394722650672336
0.32000000000000006,-0.9,0.48337950028792964
0.3400000000000001,-0.9,0.4196635520321689
0.3600000000000001,-0.9,0.3493292588660063
0.3800000000000001,-0.9,0.273485834608343
0.40000000000000013,-0.9,0.19332937536638764
0.41999999999999993,-0.9,0.11012399638553312
0.43999999999999995,-0.9,0.02518189619679193
0.45999999999999996,-0.9,-0.06015733753790839
0.48,-0.9,-0.14454785412338447
0.5,-0.9,-0.22665876470063226
0.52,-0.9,-0.30519513115916824
0.54,-0.9,-0.3789183880845901
0.56,-0.9,-0.44666587567504473
0.5800000000000001,-0.9,-0.5073691755808435
0.6000000000000001,-0.9,-0.5600709605000778
0.6200000000000001,-0.9,-0.603940091802051
0.6400000000000001,-0.9,-0.6382847270799825
0.6600000000000001,-0.9,-0.6625632309190482
0.6799999999999999,-0.9,-0.6763927168104314
0.7,-0.9,-0.67955508550029
0.72,-0.9,-0.6720004645452785
0.74,-0.9,-0.6538479948307686
0.76,-0.9,-0.6253839516479186
0.78,-0.9,-0.5870572299613166
0.8,-0.9,-0.5394722650672338
0.8200000000000001,-0.9,-0.4833795002879296
0.8400000000000001,-0.9,-0.41966355203216865
0.8600000000000001,-0.9,-0.3493292588660063
0.8800000000000001,-0.9,-0.273485834608343
0.9000000000000001,-0.9,-0.1933293753663875
0.9199999999999999,-0.9,-0.11012399638553301
0.94,-0.9,-0.025181896196791825
0.96,-0.9,0.060157337537908404
0.98,-0.9,0.14454785412338458
1.0,-0.9,0.22665876470063226

-1.0,-0.88,0.2696337711809038
-0.98,-0.88,0.34977200212344994
-0.96,-0.88,0.424394119648843
-0.94,-0.88,0.4923232883866157
-0.92,-0.88,0.5524882247668541
-0.9,-0.88,0.603940091802051
-0.88,-0.88,0.6458674628132063
-0.86,-0.88,0.6776091181132764
-0.84,-0.88,0.6986644728366334
-0.8200000000000001,-0.88,0.7087014714614308
-0.8,-0.88,0.707561824523543
-0.78,-0.88,0.6952635049359731
-0.76,-0.88,0.6720004645452773
-0.74,-0.88,0.6381395753950833
-0.72,-0.88,0.5942148439348041
-0.7,-0.88,0.5409189894189311
-0.6799999999999999,-0.88,0.4790925193105802
-0.6599999999999999,-0.88,0.40971047397670296
-0.64,-0.88,0.33386704971903974
-0.62,-0.88,0.25275834264479896
-0.6,-0.88,0.16766348551653468
-0.5800000000000001,-0.88,0.07992447506436297
-0.56,-0.88,-0.009074992104140905
-0.54,-0.88,-0.09793134122602526
-0.52,-0.88,-0.18524325459542768
-0.5,-0.88,-0.2696337711809038
-0.48,-0.88,-0.34977200212344994
-0.45999999999999996,-0.88,-0.42439411964884305
-0.43999999999999995,-0.88,-0.4923232883866156
-0.42000000000000004,-0.88,-0.5524882247668541
-0.4,-0.88,-0.6039400918020511
-0.38,-0.88,-0.6458674628132062
-0.36,-0.88,-0.6776091181132764
-0.33999999999999997,-0.88,-0.6986644728366331
-0.31999999999999995,-0.88,-0.7087014714614307
-0.29999999999999993,-0.88,-0.707561824523543
-0.28,-0.88,-0.6952635049359732
-0.26,-0.88,-0.6720004645452774
-0.24,-0.88,-0.6381395753950834
-0.21999999999999997,-0.88,-0.5942148439348042
-0.19999999999999996,-0.88,-0.5409189894189311
-0.17999999999999994,-0.88,-0.47909251931058006
-0.16000000000000003,-0.88,-0.40971047397670285
-0.14,-0.88,-0.3338670497190398
-0.12,-0.88,-0.25275834264479896
-0.09999999999999998,-0.88,-0.16766348551653476
-0.07999999999999996,-0.88,-0.079924475064363
-0.05999999999999994,-0.88,0.009074992104141023
-0.040000000000000036,-0.88,0.09793134122602526
-0.020000000000000018,-0.88,0.18524325459542776
0.0,-0.88,0.2696337711809039
0.020000000000000018,-0.88,0.3497720021234501
0.040000000000000036,-0.88,0.4243941196488431
0.06000000000000005,-0.88,0.4923232883866155
0.08000000000000007,-0.88,0.5524882247668543
0.10000000000000009,-0.88,0.6039400918020512
0.1200000000000001,-0.88,0.6458674628132064
0.14000000000000012,-0.88,0.6776091181132763
0.15999999999999992,-0.88,0.6986644728366336
0.17999999999999994,-0.88,0.7087014714614307
0.19999999999999996,-0.88,0.7075618245235432
0.21999999999999997,-0.88,0.695263504935973
0.24,-0.88,0.6720004645452774
0.26,-0.88,0.6381395753950834
0.28,-0.88,0.5942148439348041
0.30000000000000004,-0.88,0.5409189894189309
0.32000000000000006,-0.88,0.4790925193105802
0.3400000000000001,-0.88,0.4097104739767029
0.3600000000000001,-0.88,0.3338670497190397
0.3800000000000001,-0.88,0.2527583426447991
0.40000000000000013,-0.88,0.1676634855165347
0.41999999999999993,-0.88,0.07992447506436298
0.43999999999999995,-0.88,-0.00907499210414103
0.45999999999999996,-0.88,-0.0979313412260253
0.48,-0.88,-0.18524325459542768
0.5,-0.88,-0.26963377118090387
0.52,-0.88,-0.34977200212344994
0.54,-0.88,-0.424394119648843
0.56,-0.88,-0.49232328838661543
0.5800000000000001,-0.88,-0.5524882247668539
0.6000000000000001,-0.88,-0.6039400918020509
0.6200000000000001,-0.88,-0.6458674628132064
0.6400000000000001,-0.88,-0.6776091181132764
0.6600000000000001,-0.88,-0.6986644728366335
0.6799999999999999,-0.88,-0.7087014714614305
0.7,-0.88,-0.707561824523543
0.72,-0.88,-0.695263504935973
0.74,-0.88,-0.6720004645452775
0.76,-0.88,-0.6381395753950836
0.78,-0.88,-0.5942148439348043
0.8,-0.88,-0.5409189894189309
0.8200000000000001,-0.88,-0.47909251931058
0.8400000000000001,-0.88,-0.4097104739767029
0.8600000000000001,-0.88,-0.3338670497190397
0.8800000000000001,-0.88,-0.25275834264479896
0.9000000000000001,-0.88,-0.1676634855165346
0.9199999999999999,-0.88,-0.07992447506436286
0.94,-0.88,0.009074992104141071
0.96,-0.88,0.0979313412260254
0.98,-0.88,0.18524325459542765
1.0,-0.88,0.2696337711809038

-1.0,-0.86,0.30835649201824533
-0.98,-0.86,0.38883275967057856
-0.96,-0.86,0.4631769024254753
-0.94,-0.86,0.5302164687406523
-0.92,-0.86,0.5888942046078229
-0.9,-0.86,0.6382847270799823
-0.88,-0.86,0.6776091181132764
-0.86,-0.86,0.7062472085698572
-0.84,-0.86,0.723747358655659
-0.8200000000000001,-0.86,0.7298335805497449
-0.8,-0.86,0.7244098908971132
-0.78,-0.86,0.7075618245235413
-0.76,-0.86,0.6795550855002872
-0.74,-0.86,0.6408313568321625
-0.72,-0.86,0.592001334852698
-0.7,-0.86,0.5338350981781508
-0.6799999999999999,-0.86,0.4672499631077043
-0.6599999999999999,-0.86,0.39329601699745115
-0.64,-0.86,0.3131395577554956
-0.62,-0.86,0.22804470062723142
-0.6,-0.86,0.1393534423427746
-0.5800000000000001,-0.86,0.0484644970268608
-0.56,-0.86,-0.043188762358454105
-0.54,-0.86,-0.13416090916166012
-0.52,-0.86,-0.2230172582835445
-0.5,-0.86,-0.3083564920182452
-0.48,-0.86,-0.38883275967057856
-0.45999999999999996,-0.86,-0.46317690242547516
-0.43999999999999995,-0.86,-0.5302164687406522
-0.42000000000000004,-0.86,-0.588894204607823
-0.4,-0.86,-0.6382847270799824
-0.38,-0.86,-0.6776091181132763
-0.36,-0.86,-0.706247208569857
-0.33999999999999997,-0.86,-0.7237473586556589
-0.31999999999999995,-0.86,-0.729833580549745
-0.29999999999999993,-0.86,-0.7244098908971132
-0.28,-0.86,-0.7075618245235413
-0.26,-0.86,-0.6795550855002874
-0.24,-0.86,-0.6408313568321625
-0.21999999999999997,-0.86,-0.592001334852698
-0.19999999999999996,-0.86,-0.5338350981781508
-0.17999999999999994,-0.86,-0.46724996310770417
-0.16000000000000003,-0.86,-0.3932960169974512
-0.14,-0.86,-0.3131395577554957
-0.12,-0.86,-0.22804470062723153
-0.09999999999999998,-0.86,-0.13935344234277466
-0.07999999999999996,-0.86,-0.04846449702686071
-0.05999999999999994,-0.86,0.043188762358454105
-0.040000000000000036,-0.86,0.13416090916166026
-0.020000000000000018,-0.86,0.22301725828354463
0.0,-0.86,0.30835649201824544
0.020000000000000018,-0.86,0.3888327596705787
0.040000000000000036,-0.86,0.46317690242547516
0.06000000000000005,-0.86,0.5302164687406525
0.08000000000000007,-0.86,0.5888942046078232
0.10000000000000009,-0.86,0.6382847270799826
0.1200000000000001,-0.86,0.6776091181132764
0.14000000000000012,-0.86,0.7062472085698573
0.15999999999999992,-0.86,0.7237473586556589
0.17999999999999994,-0.86,0.7298335805497451
0.19999999999999996,-0.86,0.7244098908971128
0.21999999999999997,-0.86,0.7075618245235413
0.24,-0.86,0.6795550855002873
0.26,-0.86,0.6408313568321625
0.28,-0.86,0.5920013348526978
0.30000000000000004,-0.86,0.5338350981781509
0.32000000000000006,-0.86,0.4672499631077042
0.3400000000000001,-0.86,0.3932960169974511
0.3600000000000001,-0.86,0.31313955775549573
0.3800000000000001,-0.86,0.22804470062723148