TITLE = "Solution" 
VARIABLES = "x", "y", "sol" 
ZONE STRANDID=1, SOLUTIONTIME= 0.46000000000000024, I= 101, J =101, DATAPACKING=POINT 
-1.0,-1.0,-0.09076381396672016
-0.98,-1.0,-0.059858241305429306
-0.96,-1.0,-0.02800866842117171
-0.94,-1.0,0.0042826178956552885
-0.92,-1.0,0.03650636476995588
-0.9,-1.0,0.06815438446398905
-0.88,-1.0,0.0987275688015693
-0.86,-1.0,0.12774376040215804
-0.84,-1.0,0.15474535659078095
-0.8200000000000001,-1.0,0.17930652606557207
-0.8,-1.0,0.2010399245117825
-0.78,-1.0,0.21960280325301235
-0.76,-1.0,0.23470241460258612
-0.74,-1.0,0.24610062866945068
-0.72,-1.0,0.2536176888088081
-0.7,-1.0,0.25713504649178703
-0.6799999999999999,-1.0,0.2565972308865595
-0.6599999999999999,-1.0,0.2520127236664952
-0.64,-1.0,0.24345382524910641
-0.62,-1.0,0.23105551457527346
-0.6,-1.0,0.21501332041071441
-0.5800000000000001,-1.0,0.19558023774054648
-0.56,-1.0,0.1730627378872393
-0.54,-1.0,0.14781593527478185
-0.52,-1.0,0.12023798706208147
-0.5,-1.0,0.09076381396672016
-0.48,-1.0,0.05985824130542927
-0.45999999999999996,-1.0,0.02800866842117166
-0.43999999999999995,-1.0,-0.004282617895655323
-0.42000000000000004,-1.0,-0.03650636476995594
-0.4,-1.0,-0.0681543844639891
-0.38,-1.0,-0.09872756880156938
-0.36,-1.0,-0.127743760402158
-0.33999999999999997,-1.0,-0.15474535659078098
-0.31999999999999995,-1.0,-0.17930652606557207
-0.29999999999999993,-1.0,-0.2010399245117825
-0.28,-1.0,-0.21960280325301226
-0.26,-1.0,-0.23470241460258617
-0.24,-1.0,-0.2461006286694507
-0.21999999999999997,-1.0,-0.25361768880880814
-0.19999999999999996,-1.0,-0.25713504649178703
-0.17999999999999994,-1.0,-0.2565972308865594
-0.16000000000000003,-1.0,-0.2520127236664953
-0.14,-1.0,-0.24345382524910653
-0.12,-1.0,-0.23105551457527354
-0.09999999999999998,-1.0,-0.2150133204107144
-0.07999999999999996,-1.0,-0.19558023774054648
-0.05999999999999994,-1.0,-0.17306273788723928
-0.040000000000000036,-1.0,-0.1478159352747818
-0.020000000000000018,-1.0,-0.12023798706208141
0.0,-1.0,-0.09076381396672008
0.020000000000000018,-1.0,-0.05985824130542925
0.040000000000000036,-1.0,-0.028008668421171674
0.06000000000000005,-1.0,0.0042826178956552885
0.08000000000000007,-1.0,0.03650636476995588
0.10000000000000009,-1.0,0.06815438446398903
0.1200000000000001,-1.0,0.09872756880156927
0.14000000000000012,-1.0,0.12774376040215804
0.15999999999999992,-1.0,0.15474535659078092
0.17999999999999994,-1.0,0.17930652606557201
0.19999999999999996,-1.0,0.20103992451178238
0.21999999999999997,-1.0,0.21960280325301224
0.24,-1.0,0.2347024146025862
0.26,-1.0,0.2461006286694506
0.28,-1.0,0.2536176888088081
0.30000000000000004,-1.0,0.25713504649178703
0.32000000000000006,-1.0,0.2565972308865595
0.3400000000000001,-1.0,0.2520127236664952
0.3600000000000001,-1.0,0.24345382524910641
0.3800000000000001,-1.0,0.23105551457527346
0.40000000000000013,-1.0,0.2150133204107143
0.41999999999999993,-1.0,0.19558023774054645
0.43999999999999995,-1.0,0.17306273788723922
0.45999999999999996,-1.0,0.14781593527478176
0.48,-1.0,0.12023798706208141
0.5,-1.0,0.09076381396672009
0.52,-1.0,0.05985824130542926
0.54,-1.0,0.02800866842117166
0.56,-1.0,-0.004282617895655337
0.5800000000000001,-1.0,-0.03650636476995588
0.6000000000000001,-1.0,-0.06815438446398905
0.6200000000000001,-1.0,-0.09872756880156938
0.6400000000000001,-1.0,-0.12774376040215796
0.6600000000000001,-1.0,-0.15474535659078092
0.6799999999999999,-1.0,-0.17930652606557201
0.7,-1.0,-0.20103992451178243
0.72,-1.0,-0.21960280325301235
0.74,-1.0,-0.23470241460258617
0.76,-1.0,-0.24610062866945065
0.78,-1.0,-0.2536176888088081
0.8,-1.0,-0.257135046491787
0.8200000000000001,-1.0,-0.25659723088655956
0.8400000000000001,-1.0,-0.25201272366649513
0.8600000000000001,-1.0,-0.2434538252491064
0.8800000000000001,-1.0,-0.2310555145752734
0.9000000000000001,-1.0,-0.21501332041071428
0.9199999999999999,-1.0,-0.19558023774054648
0.94,-1.0,-0.17306273788723928
0.96,-1.0,-0.1478159352747818
0.98,-1.0,-0.12023798706208144
1.0,-1.0,-0.09076381396672016

-1.0,-0.98,-0.059858241305429306
-0.98,-0.98,-0.017094787655493916
-0.96,-0.98,0.025938261007699772
-0.94,-0.98,0.06856224780003597
-0.92,-0.98,0.11010496698746405
-0.9,-0.98,0.14991126507198077
-0.88,-0.98,0.1873533729536635
-0.86,-0.98,0.22184080622438662
-0.84,-0.98,0.2528296774596772
-0.8200000000000001,-0.98,0.2798312736483003
-0.8,-0.98,0.30241976348838956
-0.78,-0.98,0.32023891300145657
-0.76,-0.98,0.333007703555037
-0.74,-0.98,0.3405247636943944
-0.72,-0.98,0.34267154489065743
-0.7,-0.98,0.3394141911219365
-0.6799999999999999,-0.98,0.3308040728030129
-0.6599999999999999,-0.98,0.31697697664321145
-0.64,-0.98,0.298150964208879
-0.62,-0.98,0.27462293296221973
-0.6,-0.98,0.24676393401095786
-0.5800000000000001,-0.98,0.21501332041071433
-0.56,-0.98,0.17987181830486199
-0.54,-0.98,0.14189363017412598
-0.52,-0.98,0.10167769473239795
-0.5,-0.98,0.05985824130542927
-0.48,-0.98,0.017094787655493864
-0.45999999999999996,-0.98,-0.02593826100769982
-0.43999999999999995,-0.98,-0.06856224780003603
-0.42000000000000004,-0.98,-0.11010496698746411
-0.4,-0.98,-0.14991126507198088
-0.38,-0.98,-0.18735337295366342
-0.36,-0.98,-0.22184080622438673
-0.33999999999999997,-0.98,-0.2528296774596772
-0.31999999999999995,-0.98,-0.2798312736483003
-0.29999999999999993,-0.98,-0.30241976348838945
-0.28,-0.98,-0.3202389130014567
-0.26,-0.98,-0.333007703555037
-0.24,-0.98,-0.34052476369439444
-0.21999999999999997,-0.98,-0.3426715448906574
-0.19999999999999996,-0.98,-0.3394141911219364
-0.17999999999999994,-0.98,-0.330804072803013
-0.16000000000000003,-0.98,-0.3169769766432115
-0.14,-0.98,-0.2981509642088791
-0.12,-0.98,-0.27462293296221973
-0.09999999999999998,-0.98,-0.24676393401095786
-0.07999999999999996,-0.98,-0.21501332041071433
-0.05999999999999994,-0.98,-0.1798718183048619
-0.040000000000000036,-0.98,-0.14189363017412587
-0.020000000000000018,-0.98,-0.10167769473239788
0.0,-0.98,-0.05985824130542923
0.020000000000000018,-0.98,-0.017094787655493857
0.040000000000000036,-0.98,0.0259382610076998
0.06000000000000005,-0.98,0.06856224780003599
0.08000000000000007,-0.98,0.11010496698746408
0.10000000000000009,-0.98,0.14991126507198074
0.1200000000000001,-0.98,0.1873533729536635
0.14000000000000012,-0.98,0.22184080622438668
0.15999999999999992,-0.98,0.25282967745967716
0.17999999999999994,-0.98,0.2798312736483002
0.19999999999999996,-0.98,0.3024197634883894
0.21999999999999997,-0.98,0.3202389130014567
0.24,-0.98,0.3330077035550369
0.26,-0.98,0.3405247636943944
0.28,-0.98,0.3426715448906573
0.30000000000000004,-0.98,0.33941419112193644
0.32000000000000006,-0.98,0.3308040728030128
0.3400000000000001,-0.98,0.31697697664321145
0.3600000000000001,-0.98,0.298150964208879
0.3800000000000001,-0.98,0.27462293296221957
0.40000000000000013,-0.98,0.24676393401095784
0.41999999999999993,-0.98,0.21501332041071425
0.43999999999999995,-0.98,0.17987181830486185
0.45999999999999996,-0.98,0.14189363017412585
0.48,-0.98,0.10167769473239785
0.5,-0.98,0.05985824130542924
0.52,-0.98,0.01709478765549385
0.54,-0.98,-0.025938261007699824
0.56,-0.98,-0.06856224780003599
0.5800000000000001,-0.98,-0.11010496698746408
0.6000000000000001,-0.98,-0.14991126507198085
0.6200000000000001,-0.98,-0.1873533729536634
0.6400000000000001,-0.98,-0.22184080622438662
0.6600000000000001,-0.98,-0.2528296774596772
0.6799999999999999,-0.98,-0.27983127364830024
0.7,-0.98,-0.30241976348838945
0.72,-0.98,-0.3202389130014567
0.74,-0.98,-0.33300770355503695
0.76,-0.98,-0.34052476369439433
0.78,-0.98,-0.34267154489065726
0.8,-0.98,-0.3394141911219365
0.8200000000000001,-0.98,-0.3308040728030128
0.8400000000000001,-0.98,-0.3169769766432114
0.8600000000000001,-0.98,-0.29815096420887893
0.8800000000000001,-0.98,-0.27462293296221957
0.9000000000000001,-0.98,-0.24676393401095792
0.9199999999999999,-0.98,-0.21501332041071428
0.94,-0.98,-0.17987181830486187
0.96,-0.98,-0.1418936301741259
0.98,-0.98,-0.10167769473239793
1.0,-0.98,-0.059858241305429306

-1.0,-0.96,-0.028008668421171713
-0.98,-0.96,0.025938261007699758
-0.96,-0.96,0.07947612856571376
-0.94,-0.96,0.13176061009950854
-0.92,-0.96,0.18196714810206088
-0.9,-0.96,0.2293039554771386
-0.88,-0.96,0.2730245024947982
-0.86,-0.96,0.31243929001118265
-0.84,-0.96,0.34692672328190605
-0.8200000000000001,-0.96,0.37594291488249476
-0.8,-0.96,0.3990302621379745
-0.78,-0.96,0.41582466379041416
-0.76,-0.96,0.42606126209326506
-0.74,-0.96,0.42957861977624373
-0.72,-0.96,0.42632126600752257
-0.7,-0.96,0.41634057120188317
-0.6799999999999999,-0.96,0.39979393687858833
-0.6599999999999999,-0.96,0.37694231334539663
-0.64,-0.96,0.34814608435632477
-0.62,-0.96,0.31385938364456345
-0.6,-0.96,0.2746229329622197
-0.5800000000000001,-0.96,0.23105551457527346
-0.56,-0.96,0.183844212697601
-0.54,-0.96,0.13373357776247807
-0.52,-0.96,0.08151388441747376
-0.5,-0.96,0.02800866842117166
-0.48,-0.96,-0.025938261007699824
-0.45999999999999996,-0.96,-0.07947612856571384
-0.43999999999999995,-0.96,-0.13176061009950862
-0.42000000000000004,-0.96,-0.18196714810206097
-0.4,-0.96,-0.22930395547713847
-0.38,-0.96,-0.27302450249479826
-0.36,-0.96,-0.31243929001118265
-0.33999999999999997,-0.96,-0.34692672328190605
-0.31999999999999995,-0.96,-0.3759429148824947
-0.29999999999999993,-0.96,-0.39903026213797466
-0.28,-0.96,-0.4158246637904142
-0.26,-0.96,-0.42606126209326506
-0.24,-0.96,-0.4295786197762437
-0.21999999999999997,-0.96,-0.4263212660075225
-0.19999999999999996,-0.96,-0.41634057120188334
-0.17999999999999994,-0.96,-0.39979393687858833
-0.16000000000000003,-0.96,-0.37694231334539674
-0.14,-0.96,-0.3481460843563247
-0.12,-0.96,-0.3138593836445634
-0.09999999999999998,-0.96,-0.2746229329622197
-0.07999999999999996,-0.96,-0.23105551457527343
-0.05999999999999994,-0.96,-0.18384421269760085
-0.040000000000000036,-0.96,-0.13373357776247802
-0.020000000000000018,-0.96,-0.08151388441747369
0.0,-0.96,-0.028008668421171633
0.020000000000000018,-0.96,0.025938261007699824
0.040000000000000036,-0.96,0.07947612856571379
0.06000000000000005,-0.96,0.13176061009950857
0.08000000000000007,-0.96,0.18196714810206085
0.10000000000000009,-0.96,0.22930395547713855
0.1200000000000001,-0.96,0.27302450249479815
0.14000000000000012,-0.96,0.3124392900111826
0.15999999999999992,-0.96,0.34692672328190594
0.17999999999999994,-0.96,0.3759429148824946
0.19999999999999996,-0.96,0.39903026213797455
0.21999999999999997,-0.96,0.41582466379041405
0.24,-0.96,0.42606126209326495
0.26,-0.96,0.42957861977624356
0.28,-0.96,0.42632126600752257
0.30000000000000004,-0.96,0.4163405712018831
0.32000000000000006,-0.96,0.39979393687858833
0.3400000000000001,-0.96,0.37694231334539663
0.3600000000000001,-0.96,0.3481460843563246
0.3800000000000001,-0.96,0.3138593836445634
0.40000000000000013,-0.96,0.2746229329622196
0.41999999999999993,-0.96,0.23105551457527335
0.43999999999999995,-0.96,0.18384421269760087
0.45999999999999996,-0.96,0.13373357776247793
0.48,-0.96,0.0815138844174737
0.5,-0.96,0.02800866842117162
0.52,-0.96,-0.02593826100769984
0.54,-0.96,-0.07947612856571379
0.56,-0.96,-0.13176061009950857
0.5800000000000001,-0.96,-0.18196714810206094
0.6000000000000001,-0.96,-0.2293039554771385
0.6200000000000001,-0.96,-0.2730245024947982
0.6400000000000001,-0.96,-0.3124392900111827
0.6600000000000001,-0.96,-0.34692672328190594
0.6799999999999999,-0.96,-0.3759429148824946
0.7,-0.96,-0.3990302621379746
0.72,-0.96,-0.4158246637904142
0.74,-0.96,-0.4260612620932649
0.76,-0.96,-0.42957861977624356
0.78,-0.96,-0.42632126600752257
0.8,-0.96,-0.4163405712018832
0.8200000000000001,-0.96,-0.3997939368785883
0.8400000000000001,-0.96,-0.3769423133453966
0.8600000000000001,-0.96,-0.3481460843563245
0.8800000000000001,-0.96,-0.3138593836445634
0.9000000000000001,-0.96,-0.27462293296221957
0.9199999999999999,-0.96,-0.23105551457527335
0.94,-0.96,-0.18384421269760093
0.96,-0.96,-0.13373357776247802
0.98,-0.96,-0.08151388441747377
1.0,-0.96,-0.028008668421171713

-1.0,-0.94,0.004282617895655268
-0.98,-0.94,0.06856224780003595
-0.96,-0.94,0.13176061009950854
-0.94,-0.94,0.19288102886773867
-0.92,-0.94,0.25095959858918315
-0.9,-0.94,0.3050803855248783
-0.88,-0.94,0.35438987253465765
-0.86,-0.94,0.3981104195523176
-0.84,-0.94,0.43555252743400036
-0.8200000000000001,-0.94,0.46612571177158035
-0.8,-0.94,0.4893478151845194
-0.78,-0.94,0.5048526112297832
-0.76,-0.94,0.5123955800116211
-0.74,-0.94,0.511857764406393
-0.72,-0.94,0.5032476460874693
-0.7,-0.94,0.48670101176417435
-0.6799999999999999,-0.94,0.46247881174426697
-0.6599999999999999,-0.94,0.43096304459170165
-0.64,-0.94,0.3926507327810811
-0.62,-0.94,0.3481460843563247
-0.6,-0.94,0.29815096420887904
-0.5800000000000001,-0.94,0.2434538252491064
-0.56,-0.94,0.18491727403288954
-0.54,-0.94,0.12346446694094879
-0.52,-0.94,0.06006455145125179
-0.5,-0.94,-0.004282617895655334
-0.48,-0.94,-0.06856224780003606
-0.45999999999999996,-0.94,-0.13176061009950862
-0.43999999999999995,-0.94,-0.19288102886773878
-0.42000000000000004,-0.94,-0.25095959858918304
-0.4,-0.94,-0.3050803855248784
-0.38,-0.94,-0.35438987253465776
-0.36,-0.94,-0.3981104195523176
-0.33999999999999997,-0.94,-0.4355525274340003
-0.31999999999999995,-0.94,-0.4661257117715805
-0.29999999999999993,-0.94,-0.4893478151845195
-0.28,-0.94,-0.5048526112297831
-0.26,-0.94,-0.5123955800116211
-0.24,-0.94,-0.511857764406393
-0.21999999999999997,-0.94,-0.5032476460874695
-0.19999999999999996,-0.94,-0.48670101176417446
-0.17999999999999994,-0.94,-0.462478811744267
-0.16000000000000003,-0.94,-0.4309630445917016
-0.14,-0.94,-0.392650732781081
-0.12,-0.94,-0.3481460843563247
-0.09999999999999998,-0.94,-0.29815096420887904
-0.07999999999999996,-0.94,-0.24345382524910628
-0.05999999999999994,-0.94,-0.1849172740328895
-0.040000000000000036,-0.94,-0.12346446694094872
-0.020000000000000018,-0.94,-0.06006455145125172
0.0,-0.94,0.004282617895655354
0.020000000000000018,-0.94,0.06856224780003602
0.040000000000000036,-0.94,0.13176061009950857
0.06000000000000005,-0.94,0.1928810288677386
0.08000000000000007,-0.94,0.2509595985891831
0.10000000000000009,-0.94,0.3050803855248783
0.1200000000000001,-0.94,0.35438987253465765
0.14000000000000012,-0.94,0.39811041955231746
0.15999999999999992,-0.94,0.43555252743400025
0.17999999999999994,-0.94,0.46612571177158035
0.19999999999999996,-0.94,0.4893478151845195
0.21999999999999997,-0.94,0.504852611229783
0.24,-0.94,0.5123955800116209
0.26,-0.94,0.5118577644063931
0.28,-0.94,0.5032476460874692
0.30000000000000004,-0.94,0.4867010117641744
0.32000000000000006,-0.94,0.4624788117442669
0.3400000000000001,-0.94,0.4309630445917014
0.3600000000000001,-0.94,0.39265073278108104
0.3800000000000001,-0.94,0.34814608435632466
0.40000000000000013,-0.94,0.298150964208879
0.41999999999999993,-0.94,0.24345382524910628
0.43999999999999995,-0.94,0.1849172740328894
0.45999999999999996,-0.94,0.1234644669409487
0.48,-0.94,0.06006455145125169
0.5,-0.94,-0.004282617895655375
0.52,-0.94,-0.068562247800036
0.54,-0.94,-0.13176061009950857
0.56,-0.94,-0.19288102886773872
0.5800000000000001,-0.94,-0.2509595985891831
0.6000000000000001,-0.94,-0.3050803855248783
0.6200000000000001,-0.94,-0.3543898725346578
0.6400000000000001,-0.94,-0.3981104195523174
0.6600000000000001,-0.94,-0.43555252743400014
0.6799999999999999,-0.94,-0.46612571177158046
0.7,-0.94,-0.48934781518451953
0.72,-0.94,-0.504852611229783
0.74,-0.94,-0.512395580011621
0.76,-0.94,-0.5118577644063931
0.78,-0.94,-0.5032476460874693
0.8,-0.94,-0.4867010117641744
0.8200000000000001,-0.94,-0.46247881174426686
0.8400000000000001,-0.94,-0.4309630445917015
0.8600000000000001,-0.94,-0.39265073278108104
0.8800000000000001,-0.94,-0.3481460843563246
0.9000000000000001,-0.94,-0.29815096420887893
0.9199999999999999,-0.94,-0.24345382524910636
0.94,-0.94,-0.1849172740328895
0.96,-0.94,-0.12346446694094879
0.98,-0.94,-0.06006455145125182
1.0,-0.94,0.004282617895655268

-1.0,-0.92,0.03650636476995586
-0.98,-0.92,0.11010496698746403
-0.96,-0.92,0.18196714810206085
-0.94,-0.92,0.2509595985891831
-0.92,-0.92,0.31599426629055605
-0.9,-0.92,0.3760455156467022
-0.88,-0.92,0.43016630258239774
-0.86,-0.92,0.4775031099574755
-0.84,-0.92,0.5173094080419921
-0.8200000000000001,-0.92,0.5489574277360251
-0.8,-0.92,0.5719480608633891
-0.78,-0.92,0.5859187314057266
-0.76,-0.92,0.590649113542911
-0.74,-0.92,0.5860646063228464
-0.72,-0.92,0.5722375101630447
-0.7,-0.92,0.549385886629853
-0.6799999999999999,-0.92,0.5178701194772876
-0.6599999999999999,-0.92,0.4781872311799512
-0.64,-0.92,0.4309630445917016
-0.62,-0.92,0.37694231334539663
-0.6,-0.92,0.3169769766432114
-0.5800000000000001,-0.92,0.25201272366649524
-0.56,-0.92,0.18307407949245422
-0.54,-0.92,0.11124824772166327
-0.52,-0.92,0.03766796462781969
-0.5,-0.92,-0.03650636476995596
-0.48,-0.92,-0.11010496698746412
-0.45999999999999996,-0.92,-0.18196714810206097
-0.43999999999999995,-0.92,-0.25095959858918304
-0.42000000000000004,-0.92,-0.31599426629055616
-0.4,-0.92,-0.3760455156467023
-0.38,-0.92,-0.43016630258239774
-0.36,-0.92,-0.4775031099574755
-0.33999999999999997,-0.92,-0.5173094080419921
-0.31999999999999995,-0.92,-0.5489574277360252
-0.29999999999999993,-0.92,-0.5719480608633892
-0.28,-0.92,-0.5859187314057266
-0.26,-0.92,-0.5906491135429112
-0.24,-0.92,-0.5860646063228466
-0.21999999999999997,-0.92,-0.5722375101630448
-0.19999999999999996,-0.92,-0.5493858866298531
-0.17999999999999994,-0.92,-0.5178701194772877
-0.16000000000000003,-0.92,-0.4781872311799512
-0.14,-0.92,-0.4309630445917016
-0.12,-0.92,-0.3769423133453967
-0.09999999999999998,-0.92,-0.3169769766432113
-0.07999999999999996,-0.92,-0.25201272366649513
-0.05999999999999994,-0.92,-0.18307407949245413
-0.040000000000000036,-0.92,-0.11124824772166314
-0.020000000000000018,-0.92,-0.03766796462781964
0.0,-0.92,0.036506364769955946
0.020000000000000018,-0.92,0.11010496698746411
0.040000000000000036,-0.92,0.18196714810206085
0.06000000000000005,-0.92,0.25095959858918304
0.08000000000000007,-0.92,0.31599426629055616
0.10000000000000009,-0.92,0.3760455156467022
0.1200000000000001,-0.92,0.43016630258239763
0.14000000000000012,-0.92,0.47750310995747536
0.15999999999999992,-0.92,0.5173094080419921
0.17999999999999994,-0.92,0.5489574277360252
0.19999999999999996,-0.92,0.5719480608633889
0.21999999999999997,-0.92,0.5859187314057263
0.24,-0.92,0.5906491135429112
0.26,-0.92,0.5860646063228463
0.28,-0.92,0.5722375101630448
0.30000000000000004,-0.92,0.549385886629853
0.32000000000000006,-0.92,0.5178701194772873
0.3400000000000001,-0.92,0.4781872311799512
0.3600000000000001,-0.92,0.43096304459170154
0.3800000000000001,-0.92,0.37694231334539663
0.40000000000000013,-0.92,0.3169769766432113
0.41999999999999993,-0.92,0.2520127236664951
0.43999999999999995,-0.92,0.18307407949245402
0.45999999999999996,-0.92,0.11124824772166311
0.48,-0.92,0.03766796462781961
0.5,-0.92,-0.03650636476995593
0.52,-0.92,-0.1101049669874641
0.54,-0.92,-0.18196714810206094
0.56,-0.92,-0.25095959858918304
0.5800000000000001,-0.92,-0.3159942662905561
0.6000000000000001,-0.92,-0.37604551564670224
0.6200000000000001,-0.92,-0.4301663025823976
0.6400000000000001,-0.92,-0.4775031099574752
0.6600000000000001,-0.92,-0.5173094080419921
0.6799999999999999,-0.92,-0.5489574277360252
0.7,-0.92,-0.5719480608633888
0.72,-0.92,-0.5859187314057265
0.74,-0.92,-0.5906491135429112
0.76,-0.92,-0.5860646063228464
0.78,-0.92,-0.5722375101630448
0.8,-0.92,-0.549385886629853
0.8200000000000001,-0.92,-0.5178701194772876
0.8400000000000001,-0.92,-0.47818723117995127
0.8600000000000001,-0.92,-0.4309630445917015
0.8800000000000001,-0.92,-0.3769423133453966
0.9000000000000001,-0.92,-0.31697697664321134
0.9199999999999999,-0.92,-0.25201272366649513
0.94,-0.92,-0.18307407949245413
0.96,-0.92,-0.11124824772166327
0.98,-0.92,-0.03766796462781975
1.0,-0.92,0.03650636476995586

-1.0,-0.9,0.06815438446398901
-0.98,-0.9,0.14991126507198074
-0.96,-0.9,0.2293039554771385
-0.94,-0.9,0.30508038552487826
-0.92,-0.9,0.3760455156467022
-0.9,-0.9,0.4410801833480756
-0.88,-0.9,0.4991587530695202
-0.86,-0.9,0.5493652910720723
-0.84,-0.9,0.5909080102595003
-0.8200000000000001,-0.9,0.6231317571338009
-0.8,-0.9,0.6455283439572325
-0.78,-0.9,0.6577445631765172
-0.76,-0.9,0.6595877577169518
-0.74,-0.9,0.6510288592995626
-0.72,-0.9,0.6322028468652301
-0.7,-0.9,0.6034066178761579
-0.6799999999999999,-0.9,0.5650943060655372
-0.6599999999999999,-0.9,0.5178701194772876
-0.64,-0.9,0.4624788117442668
-0.62,-0.9,0.3997939368785883
-0.6,-0.9,0.33080407280301294
-0.5800000000000001,-0.9,0.2565972308865592
-0.56,-0.9,0.17834369735526884
-0.54,-0.9,0.09727757717932507
-0.52,-0.9,0.014677331500455476
-0.5,-0.9,-0.06815438446398911
-0.48,-0.9,-0.14991126507198085
-0.45999999999999996,-0.9,-0.22930395547713853
-0.43999999999999995,-0.9,-0.3050803855248784
-0.42000000000000004,-0.9,-0.3760455156467023
-0.4,-0.9,-0.4410801833480755
-0.38,-0.9,-0.4991587530695201
-0.36,-0.9,-0.5493652910720723
-0.33999999999999997,-0.9,-0.5909080102595003
-0.31999999999999995,-0.9,-0.6231317571338009
-0.29999999999999993,-0.9,-0.6455283439572324
-0.28,-0.9,-0.6577445631765173
-0.26,-0.9,-0.6595877577169519
-0.24,-0.9,-0.6510288592995627
-0.21999999999999997,-0.9,-0.6322028468652302
-0.19999999999999996,-0.9,-0.603406617876158
-0.17999999999999994,-0.9,-0.5650943060655372
-0.16000000000000003,-0.9,-0.5178701194772877
-0.14,-0.9,-0.462478811744267
-0.12,-0.9,-0.39979393687858816
-0.09999999999999998,-0.9,-0.33080407280301277
-0.07999999999999996,-0.9,-0.25659723088655917
-0.05999999999999994,-0.9,-0.1783436973552687
-0.040000000000000036,-0.9,-0.09727757717932498
-0.020000000000000018,-0.9,-0.014677331500455483
0.0,-0.9,0.06815438446398911
0.020000000000000018,-0.9,0.1499112650719808
0.040000000000000036,-0.9,0.2293039554771385
0.06000000000000005,-0.9,0.3050803855248783
0.08000000000000007,-0.9,0.3760455156467022
0.10000000000000009,-0.9,0.4410801833480754
0.1200000000000001,-0.9,0.49915875306951996
0.14000000000000012,-0.9,0.5493652910720722
0.15999999999999992,-0.9,0.5909080102595003
0.17999999999999994,-0.9,0.6231317571338006
0.19999999999999996,-0.9,0.645528343957232
0.21999999999999997,-0.9,0.6577445631765173
0.24,-0.9,0.6595877577169518
0.26,-0.9,0.6510288592995628
0.28,-0.9,0.63220284686523
0.30000000000000004,-0.9,0.6034066178761577
0.32000000000000006,-0.9,0.5650943060655371
0.3400000000000001,-0.9,0.5178701194772876
0.3600000000000001,-0.9,0.46247881174426686
0.3800000000000001,-0.9,0.3997939368785881
0.40000000000000013,-0.9,0.33080407280301277
0.41999999999999993,-0.9,0.256597230886559
0.43999999999999995,-0.9,0.17834369735526867
0.45999999999999996,-0.9,0.09727757717932492
0.48,-0.9,0.014677331500455476
0.5,-0.9,-0.06815438446398911
0.52,-0.9,-0.14991126507198083
0.54,-0.9,-0.22930395547713855
0.56,-0.9,-0.3050803855248783
0.5800000000000001,-0.9,-0.37604551564670224
0.6000000000000001,-0.9,-0.4410801833480754
0.6200000000000001,-0.9,-0.49915875306951996
0.6400000000000001,-0.9,-0.5493652910720724
0.6600000000000001,-0.9,-0.5909080102595005
0.6799999999999999,-0.9,-0.6231317571338005
0.7,-0.9,-0.6455283439572321
0.72,-0.9,-0.6577445631765173
0.74,-0.9,-0.6595877577169518
0.76,-0.9,-0.6510288592995627
0.78,-0.9,-0.63220284686523
0.8,-0.9,-0.6034066178761579
0.8200000000000001,-0.9,-0.5650943060655372
0.8400000000000001,-0.9,-0.5178701194772874
0.8600000000000001,-0.9,-0.46247881174426664
0.8800000000000001,-0.9,-0.39979393687858816
0.9000000000000001,-0.9,-0.33080407280301277
0.9199999999999999,-0.9,-0.2565972308865591
0.94,-0.9,-0.1783436973552688
0.96,-0.9,-0.09727757717932511
0.98,-0.9,-0.014677331500455562
1.0,-0.9,0.06815438446398901

-1.0,-0.88,0.09872756880156927
-0.98,-0.88,0.18735337295366344
-0.96,-0.88,0.27302450249479815
-0.94,-0.88,0.3543898725346577
-0.92,-0.88,0.4301663025823977
-0.9,-0.88,0.49915875306952
-0.88,-0.88,0.5602791718377501
-0.86,-0.88,0.612563653371545
-0.84,-0.88,0.6551876401638811
-0.8200000000000001,-0.88,0.6874789264807075
-0.8,-0.88,0.708928259446929
-0.78,-0.88,0.7191973702684578
-0.76,-0.88,0.7181243089331683
-0.74,-0.88,0.7057259982593351
-0.72,-0.88,0.6821979670126757
-0.7,-0.88,0.6479112663009141
-0.6799999999999999,-0.88,0.6034066178761578
-0.6599999999999999,-0.88,0.5493858866298528
-0.64,-0.88,0.48670101176417424
-0.62,-0.88,0.41634057120188317
-0.6,-0.88,0.3394141911219361
-0.5800000000000001,-0.88,0.2571350464917864
-0.56,-0.88,0.17080072857343
-0.54,-0.88,0.08177278113406106
-0.52,-0.88,-0.008544771912483744
-0.5,-0.88,-0.09872756880156938
-0.48,-0.88,-0.18735337295366344
-0.45999999999999996,-0.88,-0.2730245024947982
-0.43999999999999995,-0.88,-0.35438987253465776
-0.42000000000000004,-0.88,-0.4301663025823977
-0.4,-0.88,-0.4991587530695201
-0.38,-0.88,-0.5602791718377502
-0.36,-0.88,-0.612563653371545
-0.33999999999999997,-0.88,-0.6551876401638811
-0.31999999999999995,-0.88,-0.6874789264807075
-0.29999999999999993,-0.88,-0.708928259446929
-0.28,-0.88,-0.7191973702684576
-0.26,-0.88,-0.7181243089331686
-0.24,-0.88,-0.7057259982593352
-0.21999999999999997,-0.88,-0.6821979670126758
-0.19999999999999996,-0.88,-0.6479112663009141
-0.17999999999999994,-0.88,-0.6034066178761578
-0.16000000000000003,-0.88,-0.549385886629853
-0.14,-0.88,-0.4867010117641742
-0.12,-0.88,-0.41634057120188295
-0.09999999999999998,-0.88,-0.3394141911219361
-0.07999999999999996,-0.88,-0.25713504649178626
-0.05999999999999994,-0.88,-0.17080072857342987
-0.040000000000000036,-0.88,-0.08177278113406103
-0.020000000000000018,-0.88,0.008544771912483751
0.0,-0.88,0.09872756880156934
0.020000000000000018,-0.88,0.18735337295366344
0.040000000000000036,-0.88,0.2730245024947982
0.06000000000000005,-0.88,0.35438987253465765
0.08000000000000007,-0.88,0.4301663025823977
0.10000000000000009,-0.88,0.4991587530695199
0.1200000000000001,-0.88,0.56027917183775
0.14000000000000012,-0.88,0.6125636533715448
0.15999999999999992,-0.88,0.6551876401638809
0.17999999999999994,-0.88,0.6874789264807074
0.19999999999999996,-0.88,0.708928259446929
0.21999999999999997,-0.88,0.7191973702684578
0.24,-0.88,0.7181243089331685
0.26,-0.88,0.7057259982593352
0.28,-0.88,0.6821979670126754
0.30000000000000004,-0.88,0.6479112663009141
0.32000000000000006,-0.88,0.6034066178761578
0.3400000000000001,-0.88,0.5493858866298529
0.3600000000000001,-0.88,0.4867010117641741
0.3800000000000001,-0.88,0.41634057120188306
0.40000000000000013,-0.88,0.33941419112193594
0.41999999999999993,-0.88,0.25713504649178626
0.43999999999999995,-0.88,0.1708007285734298
0.45999999999999996,-0.88,0.081772781134061
0.48,-0.88,-0.008544771912483793
0.5,-0.88,-0.09872756880156938
0.52,-0.88,-0.18735337295366344
0.54,-0.88,-0.27302450249479815
0.56,-0.88,-0.3543898725346578
0.5800000000000001,-0.88,-0.43016630258239763
0.6000000000000001,-0.88,-0.4991587530695199
0.6200000000000001,-0.88,-0.5602791718377503
0.6400000000000001,-0.88,-0.612563653371545
0.6600000000000001,-0.88,-0.6551876401638808
0.6799999999999999,-0.88,-0.6874789264807073
0.7,-0.88,-0.708928259446929
0.72,-0.88,-0.7191973702684575
0.74,-0.88,-0.7181243089331685
0.76,-0.88,-0.7057259982593352
0.78,-0.88,-0.6821979670126757
0.8,-0.88,-0.647911266300914
0.8200000000000001,-0.88,-0.6034066178761577
0.8400000000000001,-0.88,-0.5493858866298525
0.8600000000000001,-0.88,-0.48670101176417413
0.8800000000000001,-0.88,-0.41634057120188295
0.9000000000000001,-0.88,-0.33941419112193605
0.9199999999999999,-0.88,-0.2571350464917864
0.94,-0.88,-0.17080072857343004
0.96,-0.88,-0.0817727811340611
0.98,-0.88,0.008544771912483682
1.0,-0.88,0.09872756880156927

-1.0,-0.86,0.12774376040215796
-0.98,-0.86,0.2218408062243866
-0.96,-0.86,0.31243929001118265
-0.94,-0.86,0.3981104195523175
-0.92,-0.86,0.4775031099574753
-0.9,-0.86,0.5493652910720723
-0.88,-0.86,0.612563653371545
-0.86,-0.86,0.6661015209295589
-0.84,-0.86,0.7091345695927521
-0.8200000000000001,-0.86,0.7409841424770095
-0.8,-0.86,0.7611479527919331
-0.78,-0.86,0.7693080052035801
-0.76,-0.86,0.7653356108108407
-0.74,-0.86,0.7492934166462814
-0.72,-0.86,0.7214344176950193
-0.7,-0.86,0.6821979670126753
-0.6799999999999999,-0.86,0.6322028468652295
-0.6599999999999999,-0.86,0.5722375101630444
-0.64,-0.86,0.5032476460874691
-0.62,-0.86,0.426321266007522
-0.6,-0.86,0.34267154489065654
-0.5800000000000001,-0.86,0.25361768880880686
-0.56,-0.86,0.16056413027057867
-0.54,-0.86,0.06497837948162125
-0.52,-0.86,-0.03163211916796378
-0.5,-0.86,-0.12774376040215799
-0.48,-0.86,-0.22184080622438662
-0.45999999999999996,-0.86,-0.31243929001118265
-0.43999999999999995,-0.86,-0.3981104195523176
-0.42000000000000004,-0.86,-0.47750310995747547
-0.4,-0.86,-0.5493652910720724
-0.38,-0.86,-0.612563653371545
-0.36,-0.86,-0.6661015209295589
-0.33999999999999997,-0.86,-0.7091345695927522
-0.31999999999999995,-0.86,-0.7409841424770093
-0.29999999999999993,-0.86,-0.761147952791933
-0.28,-0.86,-0.7693080052035804
-0.26,-0.86,-0.7653356108108409
-0.24,-0.86,-0.7492934166462816
-0.21999999999999997,-0.86,-0.721434417695019
-0.19999999999999996,-0.86,-0.6821979670126753
-0.17999999999999994,-0.86,-0.6322028468652298
-0.16000000000000003,-0.86,-0.5722375101630444
-0.14,-0.86,-0.5032476460874689
-0.12,-0.86,-0.4263212660075221
-0.09999999999999998,-0.86,-0.3426715448906564
-0.07999999999999996,-0.86,-0.2536176888088067
-0.05999999999999994,-0.86,-0.16056413027057861
-0.040000000000000036,-0.86,-0.06497837948162122
-0.020000000000000018,-0.86,0.03163211916796378
0.0,-0.86,0.127743760402158
0.020000000000000018,-0.86,0.22184080622438665
0.040000000000000036,-0.86,0.3124392900111826
0.06000000000000005,-0.86,0.39811041955231746
0.08000000000000007,-0.86,0.47750310995747525
0.10000000000000009,-0.86,0.5493652910720722
0.1200000000000001,-0.86,0.612563653371545
0.14000000000000012,-0.86,0.6661015209295588
0.15999999999999992,-0.86,0.7091345695927521
0.17999999999999994,-0.86,0.7409841424770094
0.19999999999999996,-0.86,0.7611479527919331
0.21999999999999997,-0.86,0.7693080052035804
0.24,-0.86,0.7653356108108409
0.26,-0.86,0.7492934166462811
0.28,-0.86,0.7214344176950193
0.30000000000000004,-0.86,0.6821979670126753
0.32000000000000006,-0.86,0.6322028468652298
0.3400000000000001,-0.86,0.5722375101630442