TITLE = "Solution" 
VARIABLES = "x", "y", "sol" 
ZONE STRANDID=1, SOLUTIONTIME= 0.5300000000000002, I= 101, J =101, DATAPACKING=POINT 
-1.0,-1.0,-0.1362259233587786
-0.98,-1.0,-0.15822086153557535
-0.96,-1.0,-0.1777205622093949
-0.94,-1.0,-0.19441750345205439
-0.92,-1.0,-0.20804836452588787
-0.9,-1.0,-0.21839817860907937
-0.88,-1.0,-0.22530372295085763
-0.86,-1.0,-0.22865609299178055
-0.84,-1.0,-0.228402419853694
-0.8200000000000001,-1.0,-0.22454670411352257
-0.8,-1.0,-0.21714975271178158
-0.78,-1.0,-0.20632821999080136
-0.76,-1.0,-0.1922527679860621
-0.74,-1.0,-0.1751453749839458
-0.72,-1.0,-0.15527583479155713
-0.7,-1.0,-0.132957501927218
-0.6799999999999999,-1.0,-0.10854234983252502
-0.6599999999999999,-1.0,-0.08241542004091613
-0.64,-1.0,-0.05498874984267649
-0.62,-1.0,-0.026694874210730975
-0.6,-1.0,0.0020199955342627765
-0.5800000000000001,-1.0,0.030703008742994316
-0.56,-1.0,0.058901817162760425
-0.54,-1.0,0.08617170873962986
-0.52,-1.0,0.11208262099319172
-0.5,-1.0,0.13622592335877864
-0.48,-1.0,0.15822086153557546
-0.45999999999999996,-1.0,0.17772056220939497
-0.43999999999999995,-1.0,0.19441750345205433
-0.42000000000000004,-1.0,0.20804836452588793
-0.4,-1.0,0.21839817860907945
-0.38,-1.0,0.22530372295085763
-0.36,-1.0,0.2286560929917807
-0.33999999999999997,-1.0,0.228402419853694
-0.31999999999999995,-1.0,0.22454670411352248
-0.29999999999999993,-1.0,0.21714975271178158
-0.28,-1.0,0.20632821999080136
-0.26,-1.0,0.19225276798606195
-0.24,-1.0,0.17514537498394578
-0.21999999999999997,-1.0,0.15527583479155713
-0.19999999999999996,-1.0,0.13295750192721803
-0.17999999999999994,-1.0,0.108542349832525
-0.16000000000000003,-1.0,0.08241542004091612
-0.14,-1.0,0.05498874984267649
-0.12,-1.0,0.026694874210730916
-0.09999999999999998,-1.0,-0.0020199955342627904
-0.07999999999999996,-1.0,-0.030703008742994295
-0.05999999999999994,-1.0,-0.058901817162760474
-0.040000000000000036,-1.0,-0.08617170873962987
-0.020000000000000018,-1.0,-0.11208262099319176
0.0,-1.0,-0.13622592335877864
0.020000000000000018,-1.0,-0.15822086153557546
0.040000000000000036,-1.0,-0.17772056220939492
0.06000000000000005,-1.0,-0.19441750345205436
0.08000000000000007,-1.0,-0.20804836452588782
0.10000000000000009,-1.0,-0.2183981786090794
0.1200000000000001,-1.0,-0.22530372295085757
0.14000000000000012,-1.0,-0.2286560929917805
0.15999999999999992,-1.0,-0.22840241985369403
0.17999999999999994,-1.0,-0.22454670411352254
0.19999999999999996,-1.0,-0.21714975271178158
0.21999999999999997,-1.0,-0.20632821999080136
0.24,-1.0,-0.19225276798606206
0.26,-1.0,-0.17514537498394583
0.28,-1.0,-0.1552758347915571
0.30000000000000004,-1.0,-0.1329575019272181
0.32000000000000006,-1.0,-0.108542349832525
0.3400000000000001,-1.0,-0.08241542004091612
0.3600000000000001,-1.0,-0.05498874984267649
0.3800000000000001,-1.0,-0.026694874210730912
0.40000000000000013,-1.0,0.0020199955342627765
0.41999999999999993,-1.0,0.030703008742994323
0.43999999999999995,-1.0,0.058901817162760495
0.45999999999999996,-1.0,0.08617170873962993
0.48,-1.0,0.11208262099319174
0.5,-1.0,0.13622592335877864
0.52,-1.0,0.15822086153557546
0.54,-1.0,0.1777205622093949
0.56,-1.0,0.19441750345205433
0.5800000000000001,-1.0,0.20804836452588787
0.6000000000000001,-1.0,0.2183981786090794
0.6200000000000001,-1.0,0.22530372295085763
0.6400000000000001,-1.0,0.22865609299178055
0.6600000000000001,-1.0,0.22840241985369408
0.6799999999999999,-1.0,0.22454670411352243
0.7,-1.0,0.21714975271178152
0.72,-1.0,0.20632821999080142
0.74,-1.0,0.19225276798606197
0.76,-1.0,0.17514537498394578
0.78,-1.0,0.1552758347915572
0.8,-1.0,0.13295750192721809
0.8200000000000001,-1.0,0.10854234983252496
0.8400000000000001,-1.0,0.0824154200409161
0.8600000000000001,-1.0,0.05498874984267649
0.8800000000000001,-1.0,0.02669487421073092
0.9000000000000001,-1.0,-0.0020199955342627626
0.9199999999999999,-1.0,-0.030703008742994295
0.94,-1.0,-0.05890181716276041
0.96,-1.0,-0.08617170873962983
0.98,-1.0,-0.11208262099319165
1.0,-1.0,-0.1362259233587786

-1.0,-0.98,-0.15822086153557535
-0.98,-0.98,-0.16739503107189171
-0.96,-0.98,-0.1739292809712597
-0.94,-0.98,-0.1777205622093947
-0.92,-0.98,-0.17870908401636976
-0.9,-0.98,-0.17687925681277453
-0.88,-0.98,-0.17225993806669543
-0.86,-0.98,-0.16492397719420543
-0.84,-0.98,-0.15498706668055431
-0.8200000000000001,-0.98,-0.1426059175405648
-0.8,-0.98,-0.12797578789231479
-0.78,-0.98,-0.11132740361997298
-0.76,-0.98,-0.09292331968877678
-0.74,-0.98,-0.07305377949638805
-0.72,-0.98,-0.052032137561128795
-0.7,-0.98,-0.03018991773403825
-0.6799999999999999,-0.98,-0.007871584869699133
-0.6599999999999999,-0.98,0.01457088759029198
-0.64,-0.98,0.036783568448757714
-0.62,-0.98,0.058416150459347956
-0.6,-0.98,0.07912747488107741
-0.5800000000000001,-0.98,0.09859091175547
-0.56,-0.98,0.116499511056123
-0.54,-0.98,0.13257084347398634
-0.52,-0.98,0.14655145449628176
-0.5,-0.98,0.15822086153557544
-0.48,-0.98,0.16739503107189183
-0.45999999999999996,-0.98,0.17392928097125965
-0.43999999999999995,-0.98,0.17772056220939475
-0.42000000000000004,-0.98,0.17870908401636984
-0.4,-0.98,0.17687925681277453
-0.38,-0.98,0.1722599380666955
-0.36,-0.98,0.16492397719420543
-0.33999999999999997,-0.98,0.15498706668055423
-0.31999999999999995,-0.98,0.1426059175405648
-0.29999999999999993,-0.98,0.12797578789231479
-0.28,-0.98,0.11132740361997284
-0.26,-0.98,0.09292331968877676
-0.24,-0.98,0.07305377949638805
-0.21999999999999997,-0.98,0.052032137561128795
-0.19999999999999996,-0.98,0.030189917734038223
-0.17999999999999994,-0.98,0.00787158486969912
-0.16000000000000003,-0.98,-0.014570887590291952
-0.14,-0.98,-0.03678356844875777
-0.12,-0.98,-0.05841615045934796
-0.09999999999999998,-0.98,-0.07912747488107738
-0.07999999999999996,-0.98,-0.09859091175547002
-0.05999999999999994,-0.98,-0.11649951105612295
-0.040000000000000036,-0.98,-0.1325708434739864
-0.020000000000000018,-0.98,-0.14655145449628182
0.0,-0.98,-0.15822086153557546
0.020000000000000018,-0.98,-0.16739503107189174
0.040000000000000036,-0.98,-0.17392928097125965
0.06000000000000005,-0.98,-0.17772056220939467
0.08000000000000007,-0.98,-0.17870908401636976
0.10000000000000009,-0.98,-0.1768792568127745
0.1200000000000001,-0.98,-0.1722599380666954
0.14000000000000012,-0.98,-0.16492397719420546
0.15999999999999992,-0.98,-0.15498706668055431
0.17999999999999994,-0.98,-0.1426059175405648
0.19999999999999996,-0.98,-0.12797578789231479
0.21999999999999997,-0.98,-0.11132740361997293
0.24,-0.98,-0.09292331968877679
0.26,-0.98,-0.07305377949638803
0.28,-0.98,-0.05203213756112888
0.30000000000000004,-0.98,-0.030189917734038223
0.32000000000000006,-0.98,-0.007871584869699154
0.3400000000000001,-0.98,0.014570887590291945
0.3600000000000001,-0.98,0.03678356844875777
0.3800000000000001,-0.98,0.05841615045934793
0.40000000000000013,-0.98,0.07912747488107741
0.41999999999999993,-0.98,0.09859091175547005
0.43999999999999995,-0.98,0.11649951105612304
0.45999999999999996,-0.98,0.13257084347398637
0.48,-0.98,0.1465514544962818
0.5,-0.98,0.15822086153557546
0.52,-0.98,0.1673950310718917
0.54,-0.98,0.17392928097125962
0.56,-0.98,0.17772056220939472
0.5800000000000001,-0.98,0.17870908401636976
0.6000000000000001,-0.98,0.17687925681277453
0.6200000000000001,-0.98,0.17225993806669543
0.6400000000000001,-0.98,0.16492397719420546
0.6600000000000001,-0.98,0.1549870666805542
0.6799999999999999,-0.98,0.14260591754056479
0.7,-0.98,0.1279757878923148
0.72,-0.98,0.11132740361997288
0.74,-0.98,0.09292331968877673
0.76,-0.98,0.07305377949638811
0.78,-0.98,0.05203213756112885
0.8,-0.98,0.030189917734038216
0.8200000000000001,-0.98,0.007871584869699098
0.8400000000000001,-0.98,-0.014570887590291966
0.8600000000000001,-0.98,-0.03678356844875778
0.8800000000000001,-0.98,-0.05841615045934797
0.9000000000000001,-0.98,-0.07912747488107741
0.9199999999999999,-0.98,-0.09859091175546994
0.94,-0.98,-0.11649951105612297
0.96,-0.98,-0.13257084347398626
0.98,-0.98,-0.14655145449628176
1.0,-0.98,-0.15822086153557535

-1.0,-0.96,-0.1777205622093949
-0.98,-0.96,-0.1739292809712597
-0.96,-0.96,-0.1673950310718915
-0.94,-0.96,-0.15822086153557507
-0.92,-0.96,-0.1465514544962814
-0.9,-0.96,-0.1325708434739859
-0.88,-0.96,-0.11649951105612238
-0.86,-0.96,-0.09859091175546925
-0.84,-0.96,-0.07912747488107633
-0.8200000000000001,-0.96,-0.058416150459346554
-0.8,-0.96,-0.03678356844875612
-0.78,-0.96,-0.014570887590290044
-0.76,-0.96,0.007871584869701215
-0.74,-0.96,0.030189917734040367
-0.72,-0.96,0.05203213756113094
-0.7,-0.96,0.07305377949639028
-0.6799999999999999,-0.96,0.0929233196887789
-0.6599999999999999,-0.96,0.11132740361997484
-0.64,-0.96,0.12797578789231645
-0.62,-0.96,0.1426059175405661
-0.6,-0.96,0.1549870666805551
-0.5800000000000001,-0.96,0.16492397719420598
-0.56,-0.96,0.17225993806669582
-0.54,-0.96,0.1768792568127748
-0.52,-0.96,0.17870908401637
-0.5,-0.96,0.17772056220939497
-0.48,-0.96,0.17392928097125965
-0.45999999999999996,-0.96,0.16739503107189152
-0.43999999999999995,-0.96,0.15822086153557513
-0.42000000000000004,-0.96,0.14655145449628143
-0.4,-0.96,0.13257084347398593
-0.38,-0.96,0.11649951105612236
-0.36,-0.96,0.09859091175546916
-0.33999999999999997,-0.96,0.07912747488107631
-0.31999999999999995,-0.96,0.05841615045934653
-0.29999999999999993,-0.96,0.036783568448756014
-0.28,-0.96,0.014570887590290016
-0.26,-0.96,-0.007871584869701208
-0.24,-0.96,-0.030189917734040332
-0.21999999999999997,-0.96,-0.05203213756113097
-0.19999999999999996,-0.96,-0.07305377949639028
-0.17999999999999994,-0.96,-0.09292331968877887
-0.16000000000000003,-0.96,-0.1113274036199749
-0.14,-0.96,-0.12797578789231648
-0.12,-0.96,-0.14260591754056604
-0.09999999999999998,-0.96,-0.15498706668055512
-0.07999999999999996,-0.96,-0.16492397719420593
-0.05999999999999994,-0.96,-0.17225993806669593
-0.040000000000000036,-0.96,-0.1768792568127749
-0.020000000000000018,-0.96,-0.17870908401637006
0.0,-0.96,-0.17772056220939492
0.020000000000000018,-0.96,-0.17392928097125965
0.040000000000000036,-0.96,-0.1673950310718915
0.06000000000000005,-0.96,-0.15822086153557507
0.08000000000000007,-0.96,-0.14655145449628135
0.10000000000000009,-0.96,-0.13257084347398584
0.1200000000000001,-0.96,-0.11649951105612236
0.14000000000000012,-0.96,-0.09859091175546922
0.15999999999999992,-0.96,-0.07912747488107633
0.17999999999999994,-0.96,-0.058416150459346554
0.19999999999999996,-0.96,-0.036783568448756084
0.21999999999999997,-0.96,-0.014570887590290071
0.24,-0.96,0.007871584869701256
0.26,-0.96,0.03018991773404027
0.28,-0.96,0.052032137561130946
0.30000000000000004,-0.96,0.0730537794963902
0.32000000000000006,-0.96,0.09292331968877886
0.3400000000000001,-0.96,0.1113274036199749
0.3600000000000001,-0.96,0.12797578789231637
0.3800000000000001,-0.96,0.1426059175405661
0.40000000000000013,-0.96,0.1549870666805551
0.41999999999999993,-0.96,0.164923977194206
0.43999999999999995,-0.96,0.17225993806669584
0.45999999999999996,-0.96,0.1768792568127748
0.48,-0.96,0.17870908401637003
0.5,-0.96,0.17772056220939486
0.52,-0.96,0.17392928097125962
0.54,-0.96,0.16739503107189146
0.56,-0.96,0.15822086153557505
0.5800000000000001,-0.96,0.14655145449628135
0.6000000000000001,-0.96,0.13257084347398584
0.6200000000000001,-0.96,0.11649951105612236
0.6400000000000001,-0.96,0.09859091175546915
0.6600000000000001,-0.96,0.07912747488107628
0.6799999999999999,-0.96,0.05841615045934656
0.7,-0.96,0.03678356844875606
0.72,-0.96,0.014570887590290009
0.74,-0.96,-0.007871584869701152
0.76,-0.96,-0.030189917734040297
0.78,-0.96,-0.05203213756113095
0.8,-0.96,-0.07305377949639026
0.8200000000000001,-0.96,-0.09292331968877887
0.8400000000000001,-0.96,-0.11132740361997487
0.8600000000000001,-0.96,-0.12797578789231648
0.8800000000000001,-0.96,-0.1426059175405661
0.9000000000000001,-0.96,-0.154987066680555
0.9199999999999999,-0.96,-0.16492397719420598
0.94,-0.96,-0.17225993806669573
0.96,-0.96,-0.1768792568127748
0.98,-0.96,-0.17870908401636998
1.0,-0.96,-0.1777205622093949

-1.0,-0.94,-0.19441750345205439
-0.98,-0.94,-0.17772056220939472
-0.96,-0.94,-0.15822086153557505
-0.94,-0.94,-0.1362259233587782
-0.92,-0.94,-0.11208262099319125
-0.9,-0.94,-0.08617170873962926
-0.88,-0.94,-0.058901817162759676
-0.86,-0.94,-0.03070300874299329
-0.84,-0.94,-0.0020199955342615067
-0.8200000000000001,-0.94,0.026694874210732432
-0.8,-0.94,0.05498874984267827
-0.78,-0.94,0.0824154200409182
-0.76,-0.94,0.1085423498325272
-0.74,-0.94,0.13295750192722033
-0.72,-0.94,0.15527583479155954
-0.7,-0.94,0.17514537498394822
-0.6799999999999999,-0.94,0.19225276798606433
-0.6599999999999999,-0.94,0.20632821999080347
-0.64,-0.94,0.21714975271178313
-0.62,-0.94,0.2245467041135234
-0.6,-0.94,0.2284024198536945
-0.5800000000000001,-0.94,0.2286560929917808
-0.56,-0.94,0.2253037229508578
-0.54,-0.94,0.2183981786090795
-0.52,-0.94,0.20804836452588807
-0.5,-0.94,0.19441750345205436
-0.48,-0.94,0.17772056220939472
-0.45999999999999996,-0.94,0.15822086153557513
-0.43999999999999995,-0.94,0.13622592335877823
-0.42000000000000004,-0.94,0.11208262099319126
-0.4,-0.94,0.08617170873962922
-0.38,-0.94,0.05890181716275961
-0.36,-0.94,0.03070300874299325
-0.33999999999999997,-0.94,0.002019995534261458
-0.31999999999999995,-0.94,-0.0266948742107325
-0.29999999999999993,-0.94,-0.05498874984267835
-0.28,-0.94,-0.08241542004091817
-0.26,-0.94,-0.10854234983252715
-0.24,-0.94,-0.13295750192722033
-0.21999999999999997,-0.94,-0.15527583479155954
-0.19999999999999996,-0.94,-0.1751453749839482
-0.17999999999999994,-0.94,-0.1922527679860644
-0.16000000000000003,-0.94,-0.20632821999080347
-0.14,-0.94,-0.21714975271178313
-0.12,-0.94,-0.22454670411352343
-0.09999999999999998,-0.94,-0.22840241985369442
-0.07999999999999996,-0.94,-0.22865609299178094
-0.05999999999999994,-0.94,-0.22530372295085785
-0.040000000000000036,-0.94,-0.2183981786090796
-0.020000000000000018,-0.94,-0.208048364525888
0.0,-0.94,-0.19441750345205433
0.020000000000000018,-0.94,-0.17772056220939472
0.040000000000000036,-0.94,-0.15822086153557507
0.06000000000000005,-0.94,-0.13622592335877817
0.08000000000000007,-0.94,-0.11208262099319119
0.10000000000000009,-0.94,-0.0861717087396292
0.1200000000000001,-0.94,-0.05890181716275965
0.14000000000000012,-0.94,-0.030703008742993275
0.15999999999999992,-0.94,-0.002019995534261486
0.17999999999999994,-0.94,0.026694874210732432
0.19999999999999996,-0.94,0.05498874984267826
0.21999999999999997,-0.94,0.08241542004091822
0.24,-0.94,0.10854234983252709
0.26,-0.94,0.13295750192722028
0.28,-0.94,0.15527583479155949
0.30000000000000004,-0.94,0.17514537498394817
0.32000000000000006,-0.94,0.1922527679860644
0.3400000000000001,-0.94,0.2063282199908033
0.3600000000000001,-0.94,0.21714975271178316
0.3800000000000001,-0.94,0.22454670411352337
0.40000000000000013,-0.94,0.22840241985369447
0.41999999999999993,-0.94,0.22865609299178083
0.43999999999999995,-0.94,0.2253037229508578
0.45999999999999996,-0.94,0.21839817860907954
0.48,-0.94,0.20804836452588796
0.5,-0.94,0.19441750345205433
0.52,-0.94,0.17772056220939467
0.54,-0.94,0.15822086153557505
0.56,-0.94,0.13622592335877814
0.5800000000000001,-0.94,0.11208262099319119
0.6000000000000001,-0.94,0.0861717087396292
0.6200000000000001,-0.94,0.0589018171627596
0.6400000000000001,-0.94,0.030703008742993237
0.6600000000000001,-0.94,0.0020199955342615136
0.6799999999999999,-0.94,-0.026694874210732453
0.7,-0.94,-0.054988749842678326
0.72,-0.94,-0.08241542004091813
0.74,-0.94,-0.10854234983252714
0.76,-0.94,-0.1329575019272203
0.78,-0.94,-0.15527583479155954
0.8,-0.94,-0.1751453749839482
0.8200000000000001,-0.94,-0.1922527679860644
0.8400000000000001,-0.94,-0.20632821999080342
0.8600000000000001,-0.94,-0.21714975271178313
0.8800000000000001,-0.94,-0.22454670411352334
0.9000000000000001,-0.94,-0.2284024198536945
0.9199999999999999,-0.94,-0.22865609299178077
0.94,-0.94,-0.2253037229508578
0.96,-0.94,-0.2183981786090795
0.98,-0.94,-0.20804836452588793
1.0,-0.94,-0.19441750345205439

-1.0,-0.92,-0.2080483645258879
-0.98,-0.92,-0.17870908401636973
-0.96,-0.92,-0.1465514544962814
-0.94,-0.92,-0.11208262099319123
-0.92,-0.92,-0.07584617760212604
-0.9,-0.92,-0.038413594681964994
-0.88,-0.92,-0.0003752064265001645
-0.86,-0.92,0.03766909905844803
-0.84,-0.92,0.07511934034881551
-0.8200000000000001,-0.92,0.11138490476776336
-0.8,-0.92,0.14589386270040686
-0.78,-0.92,0.17810198726549561
-0.76,-0.92,0.20750133709843738
-0.74,-0.92,0.23362826689004645
-0.72,-0.92,0.2560707393500378
-0.7,-0.92,0.2744748232812337
-0.6799999999999999,-0.92,0.2885502752859728
-0.6599999999999999,-0.92,0.29807511707787265
-0.64,-0.92,0.3028991362120102
-0.62,-0.92,0.30294625502491146
-0.6,-0.92,0.29821573042474914
-0.5800000000000001,-0.92,0.2887821656103463
-0.56,-0.92,0.27479433353416455
-0.54,-0.92,0.25647283066397114
-0.52,-0.92,0.23410659804476391
-0.5,-0.92,0.20804836452588793
-0.48,-0.92,0.1787090840163698
-0.45999999999999996,-0.92,0.14655145449628143
-0.43999999999999995,-0.92,0.11208262099319126
-0.42000000000000004,-0.92,0.075846177602126
-0.4,-0.92,0.03841359468196494
-0.38,-0.92,0.00037520642650011593
-0.36,-0.92,-0.0376690990584481
-0.33999999999999997,-0.92,-0.07511934034881554
-0.31999999999999995,-0.92,-0.1113849047677635
-0.29999999999999993,-0.92,-0.14589386270040677
-0.28,-0.92,-0.17810198726549564
-0.26,-0.92,-0.20750133709843743
-0.24,-0.92,-0.23362826689004645
-0.21999999999999997,-0.92,-0.2560707393500377
-0.19999999999999996,-0.92,-0.2744748232812338
-0.17999999999999994,-0.92,-0.2885502752859729
-0.16000000000000003,-0.92,-0.29807511707787265
-0.14,-0.92,-0.3028991362120102
-0.12,-0.92,-0.30294625502491135
-0.09999999999999998,-0.92,-0.29821573042474925
-0.07999999999999996,-0.92,-0.2887821656103464
-0.05999999999999994,-0.92,-0.27479433353416466
-0.040000000000000036,-0.92,-0.25647283066397103
-0.020000000000000018,-0.92,-0.2341065980447639
0.0,-0.92,-0.20804836452588793
0.020000000000000018,-0.92,-0.17870908401636976
0.040000000000000036,-0.92,-0.14655145449628135
0.06000000000000005,-0.92,-0.11208262099319118
0.08000000000000007,-0.92,-0.07584617760212599
0.10000000000000009,-0.92,-0.03841359468196495
0.1200000000000001,-0.92,-0.00037520642650013675
0.14000000000000012,-0.92,0.03766909905844807
0.15999999999999992,-0.92,0.07511934034881551
0.17999999999999994,-0.92,0.11138490476776339
0.19999999999999996,-0.92,0.14589386270040683
0.21999999999999997,-0.92,0.17810198726549553
0.24,-0.92,0.20750133709843738
0.26,-0.92,0.2336282668900464
0.28,-0.92,0.25607073935003766
0.30000000000000004,-0.92,0.2744748232812338
0.32000000000000006,-0.92,0.2885502752859727
0.3400000000000001,-0.92,0.29807511707787265
0.3600000000000001,-0.92,0.30289913621201014
0.3800000000000001,-0.92,0.30294625502491135
0.40000000000000013,-0.92,0.2982157304247491
0.41999999999999993,-0.92,0.28878216561034636
0.43999999999999995,-0.92,0.2747943335341646
0.45999999999999996,-0.92,0.25647283066397103
0.48,-0.92,0.2341065980447639
0.5,-0.92,0.20804836452588785
0.52,-0.92,0.17870908401636973
0.54,-0.92,0.14655145449628132
0.56,-0.92,0.11208262099319116
0.5800000000000001,-0.92,0.07584617760212599
0.6000000000000001,-0.92,0.038413594681964924
0.6200000000000001,-0.92,0.000375206426500109
0.6400000000000001,-0.92,-0.03766909905844804
0.6600000000000001,-0.92,-0.07511934034881548
0.6799999999999999,-0.92,-0.11138490476776344
0.7,-0.92,-0.14589386270040677
0.72,-0.92,-0.17810198726549556
0.74,-0.92,-0.20750133709843738
0.76,-0.92,-0.2336282668900464
0.78,-0.92,-0.2560707393500377
0.8,-0.92,-0.27447482328123374
0.8200000000000001,-0.92,-0.2885502752859728
0.8400000000000001,-0.92,-0.29807511707787265
0.8600000000000001,-0.92,-0.30289913621201014
0.8800000000000001,-0.92,-0.3029462550249114
0.9000000000000001,-0.92,-0.29821573042474914
0.9199999999999999,-0.92,-0.2887821656103463
0.94,-0.92,-0.2747943335341646
0.96,-0.92,-0.2564728306639709
0.98,-0.92,-0.23410659804476391
1.0,-0.92,-0.2080483645258879

-1.0,-0.9,-0.21839817860907937
-0.98,-0.9,-0.17687925681277453
-0.96,-0.9,-0.13257084347398587
-0.94,-0.9,-0.08617170873962923
-0.92,-0.9,-0.038413594681964994
-0.9,-0.9,0.009950324711003048
-0.88,-0.9,0.05815732153924271
-0.86,-0.9,0.10544714266530864
-0.84,-0.9,0.15107399936047294
-0.8200000000000001,-0.9,0.19431832883849
-0.8,-0.9,0.2344981421905808
-0.78,-0.9,0.27097977975792603
-0.76,-0.9,0.303187904323015
-0.74,-0.9,0.330614574521255
-0.72,-0.9,0.3528272553797207
-0.7,-0.9,0.36947563965206237
-0.6799999999999999,-0.9,0.3802971723730421
-0.6599999999999999,-0.9,0.38512119150717955
-0.64,-0.9,0.38387161939100073
-0.62,-0.9,0.37656816252323594
-0.6,-0.9,0.36332600078156324
-0.5800000000000001,-0.9,0.34435397096713294
-0.56,-0.9,0.31995127332345963
-0.54,-0.9,0.290502752969849
-0.52,-0.9,0.256472830663971
-0.5,-0.9,0.21839817860907945
-0.48,-0.9,0.17687925681277455
-0.45999999999999996,-0.9,0.1325708434739859
-0.43999999999999995,-0.9,0.08617170873962922
-0.42000000000000004,-0.9,0.038413594681964945
-0.4,-0.9,-0.0099503247110031
-0.38,-0.9,-0.05815732153924278
-0.36,-0.9,-0.10544714266530869
-0.33999999999999997,-0.9,-0.15107399936047305
-0.31999999999999995,-0.9,-0.1943183288384899
-0.29999999999999993,-0.9,-0.23449814219058088
-0.28,-0.9,-0.2709797797579261
-0.26,-0.9,-0.30318790432301496
-0.24,-0.9,-0.33061457452125487
-0.21999999999999997,-0.9,-0.3528272553797208
-0.19999999999999996,-0.9,-0.3694756396520624
-0.17999999999999994,-0.9,-0.3802971723730421
-0.16000000000000003,-0.9,-0.38512119150717955
-0.14,-0.9,-0.3838716193910007
-0.12,-0.9,-0.37656816252323605
-0.09999999999999998,-0.9,-0.36332600078156335
-0.07999999999999996,-0.9,-0.34435397096713305
-0.05999999999999994,-0.9,-0.31995127332345963
-0.040000000000000036,-0.9,-0.29050275296984895
-0.020000000000000018,-0.9,-0.25647283066397103
0.0,-0.9,-0.2183981786090794
0.020000000000000018,-0.9,-0.17687925681277447
0.040000000000000036,-0.9,-0.13257084347398587
0.06000000000000005,-0.9,-0.08617170873962918
0.08000000000000007,-0.9,-0.038413594681964924
0.10000000000000009,-0.9,0.00995032471100309
0.1200000000000001,-0.9,0.058157321539242725
0.14000000000000012,-0.9,0.10544714266530866
0.15999999999999992,-0.9,0.15107399936047292
0.17999999999999994,-0.9,0.19431832883848993
0.19999999999999996,-0.9,0.23449814219058077
0.21999999999999997,-0.9,0.27097977975792603
0.24,-0.9,0.30318790432301485
0.26,-0.9,0.33061457452125476
0.28,-0.9,0.35282725537972076
0.30000000000000004,-0.9,0.3694756396520623
0.32000000000000006,-0.9,0.380297172373042
0.3400000000000001,-0.9,0.3851211915071795
0.3600000000000001,-0.9,0.38387161939100073
0.3800000000000001,-0.9,0.3765681625232358
0.40000000000000013,-0.9,0.3633260007815633
0.41999999999999993,-0.9,0.34435397096713294
0.43999999999999995,-0.9,0.3199512733234595
0.45999999999999996,-0.9,0.29050275296984895
0.48,-0.9,0.2564728306639709
0.5,-0.9,0.21839817860907934
0.52,-0.9,0.17687925681277447
0.54,-0.9,0.13257084347398582
0.56,-0.9,0.08617170873962918
0.5800000000000001,-0.9,0.03841359468196491
0.6000000000000001,-0.9,-0.009950324711003117
0.6200000000000001,-0.9,-0.05815732153924271
0.6400000000000001,-0.9,-0.10544714266530861
0.6600000000000001,-0.9,-0.151073999360473
0.6799999999999999,-0.9,-0.1943183288384899
0.7,-0.9,-0.23449814219058077
0.72,-0.9,-0.2709797797579261
0.74,-0.9,-0.3031879043230149
0.76,-0.9,-0.3306145745212548
0.78,-0.9,-0.35282725537972076
0.8,-0.9,-0.3694756396520624
0.8200000000000001,-0.9,-0.380297172373042
0.8400000000000001,-0.9,-0.3851211915071795
0.8600000000000001,-0.9,-0.3838716193910008
0.8800000000000001,-0.9,-0.3765681625232359
0.9000000000000001,-0.9,-0.36332600078156324
0.9199999999999999,-0.9,-0.3443539709671329
0.94,-0.9,-0.31995127332345946
0.96,-0.9,-0.290502752969849
0.98,-0.9,-0.256472830663971
1.0,-0.9,-0.21839817860907937

-1.0,-0.88,-0.22530372295085763
-0.98,-0.88,-0.17225993806669546
-0.96,-0.88,-0.11649951105612236
-0.94,-0.88,-0.05890181716275966
-0.92,-0.88,-0.0003752064265001749
-0.9,-0.88,0.05815732153924268
-0.88,-0.88,0.11577267380281181
-0.86,-0.88,0.1715622218412676
-0.84,-0.88,0.22464613115498322
-0.8200000000000001,-0.88,0.27418723678329043
-0.8,-0.88,0.3194042458960092
-0.78,-0.88,0.3595840592481002
-0.76,-0.88,0.39409301718074374
-0.74,-0.88,0.42238689281268926
-0.72,-0.88,0.4440194748232796
-0.7,-0.88,0.4586496044715293
-0.6799999999999999,-0.88,0.4660465558732694
-0.6599999999999999,-0.88,0.46609367468617
-0.64,-0.88,0.4587902178184051
-0.62,-0.88,0.44425136514765257
-0.6,-0.88,0.4227064030656197
-0.5800000000000001,-0.88,0.3944951084946765
-0.56,-0.88,0.3600623904028173
-0.54,-0.88,0.3199512733234596
-0.52,-0.88,0.27479433353416455
-0.5,-0.88,0.22530372295085768
-0.48,-0.88,0.17225993806669548
-0.45999999999999996,-0.88,0.11649951105612236
-0.43999999999999995,-0.88,0.05890181716275962
-0.42000000000000004,-0.88,0.000375206426500109
-0.4,-0.88,-0.05815732153924278
-0.38,-0.88,-0.11577267380281192
-0.36,-0.88,-0.1715622218412677
-0.33999999999999997,-0.88,-0.2246461311549831
-0.31999999999999995,-0.88,-0.2741872367832905
-0.29999999999999993,-0.88,-0.31940424589600924
-0.28,-0.88,-0.3595840592481002
-0.26,-0.88,-0.3940930171807437
-0.24,-0.88,-0.42238689281268943
-0.21999999999999997,-0.88,-0.44401947482327964
-0.19999999999999996,-0.88,-0.4586496044715293
-0.17999999999999994,-0.88,-0.4660465558732694
-0.16000000000000003,-0.88,-0.4660936746861699
-0.14,-0.88,-0.4587902178184053
-0.12,-0.88,-0.4442513651476526
-0.09999999999999998,-0.88,-0.42270640306561985
-0.07999999999999996,-0.88,-0.3944951084946766
-0.05999999999999994,-0.88,-0.36006239040281723
-0.040000000000000036,-0.88,-0.3199512733234597
-0.020000000000000018,-0.88,-0.27479433353416455
0.0,-0.88,-0.22530372295085752
0.020000000000000018,-0.88,-0.17225993806669546
0.040000000000000036,-0.88,-0.11649951105612232
0.06000000000000005,-0.88,-0.05890181716275958
0.08000000000000007,-0.88,-0.0003752064265000986
0.10000000000000009,-0.88,0.05815732153924274
0.1200000000000001,-0.88,0.11577267380281189
0.14000000000000012,-0.88,0.17156222184126757
0.15999999999999992,-0.88,0.22464613115498308
0.17999999999999994,-0.88,0.27418723678329043
0.19999999999999996,-0.88,0.31940424589600913
0.21999999999999997,-0.88,0.3595840592481001
0.24,-0.88,0.3940930171807436
0.26,-0.88,0.4223868928126893
0.28,-0.88,0.4440194748232796
0.30000000000000004,-0.88,0.45864960447152914
0.32000000000000006,-0.88,0.4660465558732692
0.3400000000000001,-0.88,0.46609367468617
0.3600000000000001,-0.88,0.458790217818405
0.3800000000000001,-0.88,0.44425136514765257
0.40000000000000013,-0.88,0.4227064030656197
0.41999999999999993,-0.88,0.39449510849467634
0.43999999999999995,-0.88,0.3600623904028173
0.45999999999999996,-0.88,0.3199512733234596
0.48,-0.88,0.2747943335341645
0.5,-0.88,0.22530372295085754
0.52,-0.88,0.1722599380666954
0.54,-0.88,0.11649951105612225
0.56,-0.88,0.058901817162759565
0.5800000000000001,-0.88,0.00037520642650007777
0.6000000000000001,-0.88,-0.058157321539242725
0.6200000000000001,-0.88,-0.11577267380281184
0.6400000000000001,-0.88,-0.17156222184126765
0.6600000000000001,-0.88,-0.22464613115498305
0.6799999999999999,-0.88,-0.27418723678329043
0.7,-0.88,-0.31940424589600924
0.72,-0.88,-0.3595840592481001
0.74,-0.88,-0.3940930171807435
0.76,-0.88,-0.4223868928126894
0.78,-0.88,-0.4440194748232797
0.8,-0.88,-0.45864960447152914
0.8200000000000001,-0.88,-0.4660465558732692
0.8400000000000001,-0.88,-0.46609367468616997
0.8600000000000001,-0.88,-0.45879021781840507
0.8800000000000001,-0.88,-0.44425136514765257
0.9000000000000001,-0.88,-0.42270640306561963
0.9199999999999999,-0.88,-0.39449510849467634
0.94,-0.88,-0.3600623904028173
0.96,-0.88,-0.3199512733234595
0.98,-0.88,-0.2747943335341645
1.0,-0.88,-0.22530372295085763

-1.0,-0.86,-0.22865609299178058
-0.98,-0.86,-0.1649239771942054
-0.96,-0.86,-0.09859091175546922
-0.94,-0.86,-0.030703008742993306
-0.92,-0.86,0.037669099058448015
-0.9,-0.86,0.10544714266530861
-0.88,-0.86,0.1715622218412676
-0.86,-0.86,0.23497166229248637
-0.84,-0.86,0.2946754592640851
-0.8200000000000001,-0.86,0.3497320482125023
-0.8,-0.86,0.39927315384080986
-0.78,-0.86,0.44251748331882695
-0.76,-0.86,0.4787830477377746
-0.74,-0.86,0.5074979174827684
-0.72,-0.86,0.5282092419044981
-0.7,-0.86,0.5405903910444868
-0.6799999999999999,-0.86,0.5444461067846571
-0.6599999999999999,-0.86,0.5397155821844946
-0.64,-0.86,0.5264734204428217
-0.62,-0.86,0.5049284583607888
-0.6,-0.86,0.4754204728607657
-0.5800000000000001,-0.86,0.438414822501304
-0.56,-0.86,0.39449510849467645
-0.54,-0.86,0.3443539709671329
-0.52,-0.86,0.2887821656103463
-0.5,-0.86,0.22865609299178066
-0.48,-0.86,0.16492397719420543
-0.45999999999999996,-0.86,0.0985909117554692
-0.43999999999999995,-0.86,0.03070300874299325
-0.42000000000000004,-0.86,-0.037669099058448105
-0.4,-0.86,-0.10544714266530872
-0.38,-0.86,-0.17156222184126768
-0.36,-0.86,-0.23497166229248628
-0.33999999999999997,-0.86,-0.2946754592640852
-0.31999999999999995,-0.86,-0.34973204821250237
-0.29999999999999993,-0.86,-0.39927315384080986
-0.28,-0.86,-0.442517483318827
-0.26,-0.86,-0.4787830477377748
-0.24,-0.86,-0.5074979174827686
-0.21999999999999997,-0.86,-0.5282092419044981
-0.19999999999999996,-0.86,-0.5405903910444868
-0.17999999999999994,-0.86,-0.5444461067846571
-0.16000000000000003,-0.86,-0.5397155821844947
-0.14,-0.86,-0.5264734204428217
-0.12,-0.86,-0.504928458360789
-0.09999999999999998,-0.86,-0.4754204728607659
-0.07999999999999996,-0.86,-0.4384148225013039
-0.05999999999999994,-0.86,-0.3944951084946765
-0.040000000000000036,-0.86,-0.34435397096713294
-0.020000000000000018,-0.86,-0.28878216561034614
0.0,-0.86,-0.2286560929917806
0.020000000000000018,-0.86,-0.16492397719420537
0.040000000000000036,-0.86,-0.09859091175546911
0.06000000000000005,-0.86,-0.030703008742993202
0.08000000000000007,-0.86,0.037669099058448084
0.10000000000000009,-0.86,0.10544714266530866
0.1200000000000001,-0.86,0.1715622218412676
0.14000000000000012,-0.86,0.2349716622924863
0.15999999999999992,-0.86,0.29467545926408517
0.17999999999999994,-0.86,0.3497320482125023
0.19999999999999996,-0.86,0.39927315384080975
0.21999999999999997,-0.86,0.44251748331882673