TITLE = "Solution" 
VARIABLES = "x", "y", "sol" 
ZONE STRANDID=1, SOLUTIONTIME= 0.15999999999999998, I= 101, J =101, DATAPACKING=POINT 
-1.0,-1.0,0.6534041032930615
-0.98,-1.0,0.5915493666252378
-0.96,-1.0,0.5203655430712715
-0.94,-1.0,0.44097524405176286
-0.92,-1.0,0.35463050200771595
-0.9,-1.0,0.26269302510101405
-0.88,-1.0,0.16661272226326224
-0.86,-1.0,0.06790483726580283
-0.84,-1.0,-0.0318739475797219
-0.8200000000000001,-1.0,-0.13115006123134101
-0.8,-1.0,-0.2283578600720928
-0.78,-1.0,-0.32196431904513423
-0.76,-1.0,-0.41049320837467246
-0.74,-1.0,-0.4925483745913855
-0.72,-1.0,-0.5668357587066554
-0.7,-1.0,-0.6321838042958523
-0.6799999999999999,-1.0,-0.6875619336430042
-0.6599999999999999,-1.0,-0.7320968005670156
-0.64,-1.0,-0.765086063612655
-0.62,-1.0,-0.7860094623948617
-0.6,-1.0,-0.7945370224158079
-0.5800000000000001,-1.0,-0.7905342589598457
-0.56,-1.0,-0.7740642979978112
-0.54,-1.0,-0.7453868806527535
-0.52,-1.0,-0.7049542669272622
-0.5,-1.0,-0.6534041032930615
-0.48,-1.0,-0.5915493666252378
-0.45999999999999996,-1.0,-0.5203655430712714
-0.43999999999999995,-1.0,-0.44097524405176286
-0.42000000000000004,-1.0,-0.35463050200771584
-0.4,-1.0,-0.26269302510101383
-0.38,-1.0,-0.1666127222632621
-0.36,-1.0,-0.06790483726580271
-0.33999999999999997,-1.0,0.03187394757972193
-0.31999999999999995,-1.0,0.13115006123134096
-0.29999999999999993,-1.0,0.22835786007209274
-0.28,-1.0,0.3219643190451341
-0.26,-1.0,0.4104932083746723
-0.24,-1.0,0.49254837459138534
-0.21999999999999997,-1.0,0.5668357587066554
-0.19999999999999996,-1.0,0.6321838042958522
-0.17999999999999994,-1.0,0.6875619336430041
-0.16000000000000003,-1.0,0.7320968005670155
-0.14,-1.0,0.7650860636126549
-0.12,-1.0,0.7860094623948615
-0.09999999999999998,-1.0,0.7945370224158078
-0.07999999999999996,-1.0,0.7905342589598457
-0.05999999999999994,-1.0,0.7740642979978114
-0.040000000000000036,-1.0,0.7453868806527536
-0.020000000000000018,-1.0,0.7049542669272623
0.0,-1.0,0.6534041032930616
0.020000000000000018,-1.0,0.5915493666252377
0.040000000000000036,-1.0,0.5203655430712711
0.06000000000000005,-1.0,0.4409752440517627
0.08000000000000007,-1.0,0.3546305020077157
0.10000000000000009,-1.0,0.2626930251010137
0.1200000000000001,-1.0,0.166612722263262
0.14000000000000012,-1.0,0.06790483726580271
0.15999999999999992,-1.0,-0.03187394757972189
0.17999999999999994,-1.0,-0.13115006123134096
0.19999999999999996,-1.0,-0.22835786007209272
0.21999999999999997,-1.0,-0.3219643190451341
0.24,-1.0,-0.4104932083746724
0.26,-1.0,-0.49254837459138556
0.28,-1.0,-0.5668357587066554
0.30000000000000004,-1.0,-0.6321838042958521
0.32000000000000006,-1.0,-0.6875619336430042
0.3400000000000001,-1.0,-0.7320968005670153
0.3600000000000001,-1.0,-0.7650860636126547
0.3800000000000001,-1.0,-0.7860094623948615
0.40000000000000013,-1.0,-0.7945370224158079
0.41999999999999993,-1.0,-0.790534258959846
0.43999999999999995,-1.0,-0.7740642979978114
0.45999999999999996,-1.0,-0.7453868806527534
0.48,-1.0,-0.7049542669272623
0.5,-1.0,-0.6534041032930614
0.52,-1.0,-0.5915493666252376
0.54,-1.0,-0.5203655430712711
0.56,-1.0,-0.4409752440517627
0.5800000000000001,-1.0,-0.35463050200771584
0.6000000000000001,-1.0,-0.26269302510101394
0.6200000000000001,-1.0,-0.1666127222632622
0.6400000000000001,-1.0,-0.0679048372658029
0.6600000000000001,-1.0,0.03187394757972175
0.6799999999999999,-1.0,0.13115006123134085
0.7,-1.0,0.2283578600720926
0.72,-1.0,0.321964319045134
0.74,-1.0,0.4104932083746723
0.76,-1.0,0.4925483745913854
0.78,-1.0,0.5668357587066554
0.8,-1.0,0.6321838042958523
0.8200000000000001,-1.0,0.6875619336430042
0.8400000000000001,-1.0,0.7320968005670155
0.8600000000000001,-1.0,0.7650860636126549
0.8800000000000001,-1.0,0.7860094623948616
0.9000000000000001,-1.0,0.7945370224158078
0.9199999999999999,-1.0,0.790534258959846
0.94,-1.0,0.7740642979978115
0.96,-1.0,0.7453868806527535
0.98,-1.0,0.7049542669272623
1.0,-1.0,0.6534041032930616

-1.0,-0.98,0.5915493666252378
-0.98,-0.98,0.534205114803388
-0.96,-0.98,0.4684361292024212
-0.94,-0.98,0.39527962601375255
-0.92,-0.98,0.31588932699424405
-0.9,-0.98,0.23151726458489913
-0.88,-0.98,0.14349403661134014
-0.86,-0.98,0.05320782196123763
-0.84,-0.98,-0.03791751182600575
-0.8200000000000001,-0.98,-0.12844486380092934
-0.8,-0.98,-0.2169465635444698
-0.78,-0.98,-0.3020268863833187
-0.76,-0.98,-0.38234406480178607
-0.74,-0.98,-0.456631448917056
-0.72,-0.98,-0.5237174823044985
-0.7,-0.98,-0.5825441781423397
-0.6799999999999999,-0.98,-0.6321838042958522
-0.6599999999999999,-0.98,-0.6718535142073199
-0.64,-0.98,-0.7009276928539024
-0.62,-0.98,-0.7189478230702708
-0.6,-0.98,-0.7256297166382092
-0.5800000000000001,-0.98,-0.7208679961045814
-0.56,-0.98,-0.7047377566467169
-0.54,-0.98,-0.6774933817766039
-0.52,-0.98,-0.6395645315609448
-0.5,-0.98,-0.5915493666252378
-0.48,-0.98,-0.534205114803388
-0.45999999999999996,-0.98,-0.4684361292024213
-0.43999999999999995,-0.98,-0.39527962601375255
-0.42000000000000004,-0.98,-0.3158893269942439
-0.4,-0.98,-0.231517264584899
-0.38,-0.98,-0.14349403661133991
-0.36,-0.98,-0.053207821961237536
-0.33999999999999997,-0.98,0.03791751182600577
-0.31999999999999995,-0.98,0.12844486380092932
-0.29999999999999993,-0.98,0.21694656354446976
-0.28,-0.98,0.3020268863833186
-0.26,-0.98,0.382344064801786
-0.24,-0.98,0.456631448917056
-0.21999999999999997,-0.98,0.5237174823044984
-0.19999999999999996,-0.98,0.5825441781423397
-0.17999999999999994,-0.98,0.6321838042958522
-0.16000000000000003,-0.98,0.6718535142073198
-0.14,-0.98,0.7009276928539022
-0.12,-0.98,0.7189478230702709
-0.09999999999999998,-0.98,0.7256297166382093
-0.07999999999999996,-0.98,0.7208679961045815
-0.05999999999999994,-0.98,0.7047377566467169
-0.040000000000000036,-0.98,0.6774933817766038
-0.020000000000000018,-0.98,0.6395645315609451
0.0,-0.98,0.5915493666252378
0.020000000000000018,-0.98,0.5342051148033878
0.040000000000000036,-0.98,0.4684361292024211
0.06000000000000005,-0.98,0.3952796260137524
0.08000000000000007,-0.98,0.31588932699424377
0.10000000000000009,-0.98,0.2315172645848988
0.1200000000000001,-0.98,0.1434940366113399
0.14000000000000012,-0.98,0.05320782196123753
0.15999999999999992,-0.98,-0.03791751182600573
0.17999999999999994,-0.98,-0.12844486380092926
0.19999999999999996,-0.98,-0.21694656354446967
0.21999999999999997,-0.98,-0.30202688638331865
0.24,-0.98,-0.3823440648017862
0.26,-0.98,-0.4566314489170561
0.28,-0.98,-0.5237174823044984
0.30000000000000004,-0.98,-0.5825441781423398
0.32000000000000006,-0.98,-0.6321838042958521
0.3400000000000001,-0.98,-0.6718535142073195
0.3600000000000001,-0.98,-0.7009276928539022
0.3800000000000001,-0.98,-0.7189478230702709
0.40000000000000013,-0.98,-0.7256297166382093
0.41999999999999993,-0.98,-0.7208679961045814
0.43999999999999995,-0.98,-0.7047377566467168
0.45999999999999996,-0.98,-0.6774933817766039
0.48,-0.98,-0.639564531560945
0.5,-0.98,-0.5915493666252376
0.52,-0.98,-0.5342051148033878
0.54,-0.98,-0.4684361292024211
0.56,-0.98,-0.3952796260137524
0.5800000000000001,-0.98,-0.31588932699424394
0.6000000000000001,-0.98,-0.23151726458489902
0.6200000000000001,-0.98,-0.1434940366113401
0.6400000000000001,-0.98,-0.05320782196123771
0.6600000000000001,-0.98,0.037917511826005626
0.6799999999999999,-0.98,0.12844486380092915
0.7,-0.98,0.21694656354446956
0.72,-0.98,0.30202688638331854
0.74,-0.98,0.382344064801786
0.76,-0.98,0.45663144891705604
0.78,-0.98,0.5237174823044987
0.8,-0.98,0.5825441781423397
0.8200000000000001,-0.98,0.6321838042958522
0.8400000000000001,-0.98,0.6718535142073198
0.8600000000000001,-0.98,0.7009276928539022
0.8800000000000001,-0.98,0.7189478230702709
0.9000000000000001,-0.98,0.7256297166382094
0.9199999999999999,-0.98,0.7208679961045815
0.94,-0.98,0.7047377566467169
0.96,-0.98,0.6774933817766039
0.98,-0.98,0.639564531560945
1.0,-0.98,0.5915493666252377

-1.0,-0.96,0.5203655430712714
-0.98,-0.96,0.46843612920242117
-0.96,-0.96,0.40911919774586913
-0.94,-0.96,0.3433502121449024
-0.92,-0.96,0.27216638859093584
-0.9,-0.96,0.19669033850457032
-0.88,-0.96,0.1181123642828746
-0.86,-0.96,0.03767168751953155
-0.84,-0.96,-0.04336309425996986
-0.8200000000000001,-0.96,-0.12371401413913462
-0.8,-0.96,-0.2021138901121553
-0.78,-0.96,-0.2773263093011217
-0.76,-0.96,-0.3481651269257023
-0.74,-0.96,-0.4135131725148993
-0.72,-0.96,-0.47233986835274044
-0.7,-0.96,-0.5237174823044985
-0.6799999999999999,-0.96,-0.5668357587066555
-0.6599999999999999,-0.96,-0.601014696582739
-0.64,-0.96,-0.6257152736649358
-0.62,-0.96,-0.64054794709725
-0.6,-0.96,-0.6452787967590446
-0.5800000000000001,-0.96,-0.6398332143250802
-0.56,-0.96,-0.6242970798833739
-0.54,-0.96,-0.5989154075549084
-0.52,-0.96,-0.5640884814745795
-0.5,-0.96,-0.5203655430712714
-0.48,-0.96,-0.4684361292024213
-0.45999999999999996,-0.96,-0.40911919774586925
-0.43999999999999995,-0.96,-0.34335021214490236
-0.42000000000000004,-0.96,-0.27216638859093567
-0.4,-0.96,-0.19669033850457007
-0.38,-0.96,-0.11811236428287447
-0.36,-0.96,-0.03767168751953146
-0.33999999999999997,-0.96,0.043363094259969884
-0.31999999999999995,-0.96,0.12371401413913459
-0.29999999999999993,-0.96,0.20211389011215522
-0.28,-0.96,0.27732630930112157
-0.26,-0.96,0.3481651269257023
-0.24,-0.96,0.4135131725148991
-0.21999999999999997,-0.96,0.4723398683527404
-0.19999999999999996,-0.96,0.5237174823044985
-0.17999999999999994,-0.96,0.5668357587066554
-0.16000000000000003,-0.96,0.601014696582739
-0.14,-0.96,0.6257152736649358
-0.12,-0.96,0.6405479470972502
-0.09999999999999998,-0.96,0.6452787967590445
-0.07999999999999996,-0.96,0.6398332143250802
-0.05999999999999994,-0.96,0.6242970798833739
-0.040000000000000036,-0.96,0.5989154075549085
-0.020000000000000018,-0.96,0.5640884814745795
0.0,-0.96,0.5203655430712714
0.020000000000000018,-0.96,0.4684361292024212
0.040000000000000036,-0.96,0.4091191977458691
0.06000000000000005,-0.96,0.34335021214490224
0.08000000000000007,-0.96,0.27216638859093556
0.10000000000000009,-0.96,0.19669033850457002
0.1200000000000001,-0.96,0.11811236428287439
0.14000000000000012,-0.96,0.03767168751953149
0.15999999999999992,-0.96,-0.04336309425996983
0.17999999999999994,-0.96,-0.1237140141391345
0.19999999999999996,-0.96,-0.20211389011215522
0.21999999999999997,-0.96,-0.2773263093011217
0.24,-0.96,-0.3481651269257024
0.26,-0.96,-0.4135131725148992
0.28,-0.96,-0.47233986835274056
0.30000000000000004,-0.96,-0.5237174823044984
0.32000000000000006,-0.96,-0.5668357587066553
0.3400000000000001,-0.96,-0.6010146965827389
0.3600000000000001,-0.96,-0.625715273664936
0.3800000000000001,-0.96,-0.6405479470972502
0.40000000000000013,-0.96,-0.6452787967590445
0.41999999999999993,-0.96,-0.6398332143250801
0.43999999999999995,-0.96,-0.6242970798833739
0.45999999999999996,-0.96,-0.5989154075549085
0.48,-0.96,-0.5640884814745794
0.5,-0.96,-0.5203655430712713
0.52,-0.96,-0.4684361292024211
0.54,-0.96,-0.409119197745869
0.56,-0.96,-0.34335021214490224
0.5800000000000001,-0.96,-0.27216638859093567
0.6000000000000001,-0.96,-0.1966903385045702
0.6200000000000001,-0.96,-0.1181123642828746
0.6400000000000001,-0.96,-0.0376716875195316
0.6600000000000001,-0.96,0.04336309425996973
0.6799999999999999,-0.96,0.12371401413913442
0.7,-0.96,0.20211389011215516
0.72,-0.96,0.2773263093011216
0.74,-0.96,0.34816512692570234
0.76,-0.96,0.4135131725148993
0.78,-0.96,0.47233986835274033
0.8,-0.96,0.5237174823044984
0.8200000000000001,-0.96,0.5668357587066555
0.8400000000000001,-0.96,0.6010146965827389
0.8600000000000001,-0.96,0.625715273664936
0.8800000000000001,-0.96,0.6405479470972503
0.9000000000000001,-0.96,0.6452787967590445
0.9199999999999999,-0.96,0.6398332143250802
0.94,-0.96,0.6242970798833739
0.96,-0.96,0.5989154075549084
0.98,-0.96,0.5640884814745795
1.0,-0.96,0.5203655430712714

-1.0,-0.94,0.4409752440517628
-0.98,-0.94,0.3952796260137525
-0.96,-0.94,0.34335021214490236
-0.94,-0.94,0.2860059603230525
-0.92,-0.94,0.22415122365522877
-0.9,-0.94,0.15876148828891135
-0.88,-0.94,0.09086798941276181
-0.86,-0.94,0.021541448061667114
-0.84,-0.94,-0.04812481479359737
-0.8200000000000001,-0.94,-0.11703212057119589
-0.8,-0.94,-0.18409375989578655
-0.78,-0.94,-0.248252130654539
-0.76,-0.94,-0.3084954170142349
-0.74,-0.94,-0.3638735463613868
-0.72,-0.94,-0.4135131725148993
-0.7,-0.94,-0.4566314489170562
-0.6799999999999999,-0.94,-0.4925483745913854
-0.6599999999999999,-0.94,-0.5206975181642717
-0.64,-0.94,-0.5406349508260869
-0.62,-0.94,-0.5520462473537099
-0.6,-0.94,-0.5547514447841211
-0.5800000000000001,-0.94,-0.5487078805378371
-0.56,-0.94,-0.5340108652332719
-0.54,-0.94,-0.5108921795813497
-0.52,-0.94,-0.47971641906523477
-0.5,-0.94,-0.4409752440517628
-0.48,-0.94,-0.3952796260137526
-0.45999999999999996,-0.94,-0.3433502121449024
-0.43999999999999995,-0.94,-0.2860059603230524
-0.42000000000000004,-0.94,-0.2241512236552286
-0.4,-0.94,-0.15876148828891126
-0.38,-0.94,-0.09086798941276165
-0.36,-0.94,-0.021541448061667065
-0.33999999999999997,-0.94,0.04812481479359738
-0.31999999999999995,-0.94,0.11703212057119584
-0.29999999999999993,-0.94,0.1840937598957865
-0.28,-0.94,0.24825213065453897
-0.26,-0.94,0.3084954170142348
-0.24,-0.94,0.36387354636138675
-0.21999999999999997,-0.94,0.4135131725148992
-0.19999999999999996,-0.94,0.45663144891705604
-0.17999999999999994,-0.94,0.4925483745913854
-0.16000000000000003,-0.94,0.5206975181642716
-0.14,-0.94,0.540634950826087
-0.12,-0.94,0.5520462473537099
-0.09999999999999998,-0.94,0.5547514447841212
-0.07999999999999996,-0.94,0.548707880537837
-0.05999999999999994,-0.94,0.5340108652332719
-0.040000000000000036,-0.94,0.5108921795813497
-0.020000000000000018,-0.94,0.4797164190652348
0.0,-0.94,0.4409752440517629
0.020000000000000018,-0.94,0.39527962601375255
0.040000000000000036,-0.94,0.34335021214490236
0.06000000000000005,-0.94,0.2860059603230523
0.08000000000000007,-0.94,0.22415122365522852
0.10000000000000009,-0.94,0.15876148828891115
0.1200000000000001,-0.94,0.09086798941276164
0.14000000000000012,-0.94,0.02154144806166708
0.15999999999999992,-0.94,-0.048124814793597315
0.17999999999999994,-0.94,-0.11703212057119584
0.19999999999999996,-0.94,-0.1840937598957865
0.21999999999999997,-0.94,-0.24825213065453902
0.24,-0.94,-0.3084954170142349
0.26,-0.94,-0.36387354636138686
0.28,-0.94,-0.4135131725148993
0.30000000000000004,-0.94,-0.45663144891705604
0.32000000000000006,-0.94,-0.4925483745913853
0.3400000000000001,-0.94,-0.5206975181642716
0.3600000000000001,-0.94,-0.5406349508260869
0.3800000000000001,-0.94,-0.5520462473537098
0.40000000000000013,-0.94,-0.5547514447841211
0.41999999999999993,-0.94,-0.548707880537837
0.43999999999999995,-0.94,-0.5340108652332718
0.45999999999999996,-0.94,-0.5108921795813496
0.48,-0.94,-0.47971641906523466
0.5,-0.94,-0.44097524405176275
0.52,-0.94,-0.3952796260137524
0.54,-0.94,-0.34335021214490224
0.56,-0.94,-0.2860059603230523
0.5800000000000001,-0.94,-0.22415122365522866
0.6000000000000001,-0.94,-0.15876148828891135
0.6200000000000001,-0.94,-0.09086798941276178
0.6400000000000001,-0.94,-0.021541448061667186
0.6600000000000001,-0.94,0.048124814793597245
0.6799999999999999,-0.94,0.11703212057119577
0.7,-0.94,0.1840937598957864
0.72,-0.94,0.24825213065453897
0.74,-0.94,0.30849541701423483
0.76,-0.94,0.3638735463613867
0.78,-0.94,0.4135131725148993
0.8,-0.94,0.4566314489170561
0.8200000000000001,-0.94,0.4925483745913853
0.8400000000000001,-0.94,0.5206975181642717
0.8600000000000001,-0.94,0.540634950826087
0.8800000000000001,-0.94,0.5520462473537098
0.9000000000000001,-0.94,0.5547514447841211
0.9199999999999999,-0.94,0.5487078805378371
0.94,-0.94,0.5340108652332719
0.96,-0.94,0.5108921795813497
0.98,-0.94,0.4797164190652348
1.0,-0.94,0.4409752440517628

-1.0,-0.92,0.3546305020077159
-0.98,-0.92,0.31588932699424405
-0.96,-0.92,0.27216638859093584
-0.94,-0.92,0.22415122365522877
-0.92,-0.92,0.17260106002102807
-0.9,-0.92,0.11832887456342035
-0.88,-0.92,0.06219057206770393
-0.86,-0.92,0.005071487099632839
-0.84,-0.92,-0.052127578249558985
-0.8200000000000001,-0.92,-0.10850456055024939
-0.8,-0.92,-0.16317036111357966
-0.78,-0.92,-0.21526286760889976
-0.76,-0.92,-0.26396055009022346
-0.74,-0.92,-0.3084954170142349
-0.72,-0.92,-0.34816512692570245
-0.7,-0.92,-0.3823440648017862
-0.6799999999999999,-0.92,-0.41049320837467246
-0.6599999999999999,-0.92,-0.43216862883473345
-0.64,-0.92,-0.44702849185304566
-0.62,-0.92,-0.4548384485129582
-0.6,-0.92,-0.4554753311325024
-0.5800000000000001,-0.92,-0.44892909569231276
-0.56,-0.92,-0.4353029802358128
-0.54,-0.92,-0.41481187674359804
-0.52,-0.92,-0.38777894215853287
-0.5,-0.92,-0.354630502007716
-0.48,-0.92,-0.31588932699424405
-0.45999999999999996,-0.92,-0.27216638859093584
-0.43999999999999995,-0.92,-0.2241512236552287
-0.42000000000000004,-0.92,-0.17260106002102799
-0.4,-0.92,-0.11832887456342019
-0.38,-0.92,-0.062190572067703856
-0.36,-0.92,-0.005071487099632801
-0.33999999999999997,-0.92,0.05212757824955898
-0.31999999999999995,-0.92,0.10850456055024936
-0.29999999999999993,-0.92,0.16317036111357963
-0.28,-0.92,0.2152628676088997
-0.26,-0.92,0.2639605500902234
-0.24,-0.92,0.30849541701423483
-0.21999999999999997,-0.92,0.3481651269257024
-0.19999999999999996,-0.92,0.3823440648017861
-0.17999999999999994,-0.92,0.41049320837467235
-0.16000000000000003,-0.92,0.43216862883473345
-0.14,-0.92,0.44702849185304566
-0.12,-0.92,0.45483844851295824
-0.09999999999999998,-0.92,0.4554753311325023
-0.07999999999999996,-0.92,0.44892909569231276
-0.05999999999999994,-0.92,0.4353029802358128
-0.040000000000000036,-0.92,0.41481187674359815
-0.020000000000000018,-0.92,0.387778942158533
0.0,-0.92,0.354630502007716
0.020000000000000018,-0.92,0.315889326994244
0.040000000000000036,-0.92,0.2721663885909357
0.06000000000000005,-0.92,0.2241512236552286
0.08000000000000007,-0.92,0.17260106002102787
0.10000000000000009,-0.92,0.11832887456342013
0.1200000000000001,-0.92,0.062190572067703835
0.14000000000000012,-0.92,0.005071487099632828
0.15999999999999992,-0.92,-0.05212757824955896
0.17999999999999994,-0.92,-0.10850456055024933
0.19999999999999996,-0.92,-0.16317036111357963
0.21999999999999997,-0.92,-0.2152628676088998
0.24,-0.92,-0.2639605500902235
0.26,-0.92,-0.30849541701423494
0.28,-0.92,-0.34816512692570245
0.30000000000000004,-0.92,-0.3823440648017861
0.32000000000000006,-0.92,-0.41049320837467235
0.3400000000000001,-0.92,-0.4321686288347334
0.3600000000000001,-0.92,-0.4470284918530456
0.3800000000000001,-0.92,-0.4548384485129582
0.40000000000000013,-0.92,-0.45547533113250227
0.41999999999999993,-0.92,-0.44892909569231276
0.43999999999999995,-0.92,-0.43530298023581276
0.45999999999999996,-0.92,-0.41481187674359804
0.48,-0.92,-0.3877789421585328
0.5,-0.92,-0.35463050200771584
0.52,-0.92,-0.31588932699424394
0.54,-0.92,-0.27216638859093567
0.56,-0.92,-0.2241512236552287
0.5800000000000001,-0.92,-0.17260106002102804
0.6000000000000001,-0.92,-0.11832887456342028
0.6200000000000001,-0.92,-0.06219057206770395
0.6400000000000001,-0.92,-0.005071487099632913
0.6600000000000001,-0.92,0.05212757824955891
0.6799999999999999,-0.92,0.10850456055024926
0.7,-0.92,0.16317036111357955
0.72,-0.92,0.2152628676088997
0.74,-0.92,0.2639605500902234
0.76,-0.92,0.3084954170142349
0.78,-0.92,0.34816512692570245
0.8,-0.92,0.3823440648017861
0.8200000000000001,-0.92,0.4104932083746724
0.8400000000000001,-0.92,0.43216862883473345
0.8600000000000001,-0.92,0.4470284918530456
0.8800000000000001,-0.92,0.4548384485129581
0.9000000000000001,-0.92,0.4554753311325024
0.9199999999999999,-0.92,0.4489290956923128
0.94,-0.92,0.4353029802358128
0.96,-0.92,0.41481187674359815
0.98,-0.92,0.38777894215853287
1.0,-0.92,0.3546305020077159

-1.0,-0.9,0.262693025101014
-0.98,-0.9,0.23151726458489916
-0.96,-0.9,0.1966903385045703
-0.94,-0.9,0.15876148828891137
-0.92,-0.9,0.11832887456342034
-0.9,-0.9,0.07603014379982068
-0.88,-0.9,0.03253237225029136
-0.86,-0.9,-0.011478454243522212
-0.84,-0.9,-0.05530825865701926
-0.8200000000000001,-0.9,-0.09826581879194282
-0.8,-0.9,-0.13967366826336264
-0.78,-0.9,-0.17887878054926415
-0.76,-0.9,-0.2152628676088998
-0.74,-0.9,-0.2482521306545391
-0.72,-0.9,-0.2773263093011218
-0.7,-0.9,-0.3020268863833188
-0.6799999999999999,-0.9,-0.3219643190451342
-0.6599999999999999,-0.9,-0.3368241820634464
-0.64,-0.9,-0.34637212652160465
-0.62,-0.9,-0.35045757563183816
-0.6,-0.9,-0.3490160994211496
-0.5800000000000001,-0.9,-0.34207043083047783
-0.56,-0.9,-0.32973010720263884
-0.54,-0.9,-0.31218974281299583
-0.52,-0.9,-0.2897259596860793
-0.5,-0.9,-0.26269302510101405
-0.48,-0.9,-0.23151726458489916
-0.45999999999999996,-0.9,-0.19669033850457027
-0.43999999999999995,-0.9,-0.15876148828891135
-0.42000000000000004,-0.9,-0.1183288745634202
-0.4,-0.9,-0.07603014379982057
-0.38,-0.9,-0.032532372250291305
-0.36,-0.9,0.01147845424352224
-0.33999999999999997,-0.9,0.05530825865701925
-0.31999999999999995,-0.9,0.09826581879194281
-0.29999999999999993,-0.9,0.1396736682633626
-0.28,-0.9,0.1788787805492641
-0.26,-0.9,0.21526286760889976
-0.24,-0.9,0.24825213065453905
-0.21999999999999997,-0.9,0.27732630930112173
-0.19999999999999996,-0.9,0.30202688638331865
-0.17999999999999994,-0.9,0.3219643190451342
-0.16000000000000003,-0.9,0.33682418206344644
-0.14,-0.9,0.34637212652160465
-0.12,-0.9,0.35045757563183816
-0.09999999999999998,-0.9,0.3490160994211496
-0.07999999999999996,-0.9,0.34207043083047783
-0.05999999999999994,-0.9,0.3297301072026389
-0.040000000000000036,-0.9,0.31218974281299594
-0.020000000000000018,-0.9,0.2897259596860793
0.0,-0.9,0.26269302510101405
0.020000000000000018,-0.9,0.23151726458489913
0.040000000000000036,-0.9,0.1966903385045702
0.06000000000000005,-0.9,0.15876148828891126
0.08000000000000007,-0.9,0.11832887456342014
0.10000000000000009,-0.9,0.07603014379982052
0.1200000000000001,-0.9,0.032532372250291305
0.14000000000000012,-0.9,-0.011478454243522215
0.15999999999999992,-0.9,-0.05530825865701921
0.17999999999999994,-0.9,-0.09826581879194277
0.19999999999999996,-0.9,-0.1396736682633626
0.21999999999999997,-0.9,-0.17887878054926415
0.24,-0.9,-0.21526286760889982
0.26,-0.9,-0.24825213065453913
0.28,-0.9,-0.27732630930112173
0.30000000000000004,-0.9,-0.3020268863833187
0.32000000000000006,-0.9,-0.3219643190451342
0.3400000000000001,-0.9,-0.3368241820634464
0.3600000000000001,-0.9,-0.3463721265216046
0.3800000000000001,-0.9,-0.35045757563183816
0.40000000000000013,-0.9,-0.3490160994211496
0.41999999999999993,-0.9,-0.34207043083047783
0.43999999999999995,-0.9,-0.3297301072026389
0.45999999999999996,-0.9,-0.31218974281299583
0.48,-0.9,-0.28972595968607917
0.5,-0.9,-0.262693025101014
0.52,-0.9,-0.23151726458489902
0.54,-0.9,-0.19669033850457024
0.56,-0.9,-0.15876148828891135
0.5800000000000001,-0.9,-0.11832887456342026
0.6000000000000001,-0.9,-0.07603014379982065
0.6200000000000001,-0.9,-0.032532372250291396
0.6400000000000001,-0.9,0.011478454243522167
0.6600000000000001,-0.9,0.05530825865701917
0.6799999999999999,-0.9,0.09826581879194272
0.7,-0.9,0.13967366826336258
0.72,-0.9,0.1788787805492641
0.74,-0.9,0.21526286760889976
0.76,-0.9,0.2482521306545391
0.78,-0.9,0.2773263093011218
0.8,-0.9,0.30202688638331876
0.8200000000000001,-0.9,0.3219643190451342
0.8400000000000001,-0.9,0.33682418206344633
0.8600000000000001,-0.9,0.3463721265216046
0.8800000000000001,-0.9,0.35045757563183816
0.9000000000000001,-0.9,0.3490160994211496
0.9199999999999999,-0.9,0.34207043083047783
0.94,-0.9,0.32973010720263896
0.96,-0.9,0.31218974281299594
0.98,-0.9,0.2897259596860792
1.0,-0.9,0.262693025101014

-1.0,-0.88,0.1666127222632623
-0.98,-0.88,0.14349403661134014
-0.96,-0.88,0.11811236428287461
-0.94,-0.88,0.09086798941276181
-0.92,-0.88,0.06219057206770395
-0.9,-0.88,0.03253237225029137
-0.88,-0.88,0.002361117488594487
-0.86,-0.88,-0.027847373506360778
-0.84,-0.88,-0.05761669478590611
-0.8200000000000001,-0.88,-0.08647736637013254
-0.8,-0.88,-0.11397423822762731
-0.78,-0.88,-0.1396736682633626
-0.76,-0.88,-0.1631703611135797
-0.74,-0.88,-0.1840937598957866
-0.72,-0.88,-0.20211389011215541
-0.7,-0.88,-0.21694656354446976
-0.6799999999999999,-0.88,-0.22835786007209263
-0.6599999999999999,-0.88,-0.23616781673200526
-0.64,-0.88,-0.24025326584223883
-0.62,-0.88,-0.2405497774297959
-0.6,-0.88,-0.23705267532981344
-0.5800000000000001,-0.88,-0.22981711093147555
-0.56,-0.88,-0.21895719340766073
-0.54,-0.88,-0.2046441901451199
-0.52,-0.88,-0.18710382575547693
-0.5,-0.88,-0.16661272226326226
-0.48,-0.88,-0.14349403661134014
-0.45999999999999996,-0.88,-0.11811236428287464
-0.43999999999999995,-0.88,-0.09086798941276171
-0.42000000000000004,-0.88,-0.06219057206770386
-0.4,-0.88,-0.032532372250291305
-0.38,-0.88,-0.0023611174885944455
-0.36,-0.88,0.027847373506360785
-0.33999999999999997,-0.88,0.05761669478590609
-0.31999999999999995,-0.88,0.08647736637013252
-0.29999999999999993,-0.88,0.11397423822762728
-0.28,-0.88,0.1396736682633626
-0.26,-0.88,0.16317036111357963
-0.24,-0.88,0.18409375989578655
-0.21999999999999997,-0.88,0.20211389011215528
-0.19999999999999996,-0.88,0.21694656354446976
-0.17999999999999994,-0.88,0.22835786007209263
-0.16000000000000003,-0.88,0.23616781673200526
-0.14,-0.88,0.24025326584223883
-0.12,-0.88,0.2405497774297959
-0.09999999999999998,-0.88,0.23705267532981344
-0.07999999999999996,-0.88,0.22981711093147555
-0.05999999999999994,-0.88,0.2189571934076608
-0.040000000000000036,-0.88,0.20464419014511992
-0.020000000000000018,-0.88,0.18710382575547696
0.0,-0.88,0.1666127222632623
0.020000000000000018,-0.88,0.14349403661134014
0.040000000000000036,-0.88,0.11811236428287453
0.06000000000000005,-0.88,0.09086798941276167
0.08000000000000007,-0.88,0.0621905720677038
0.10000000000000009,-0.88,0.03253237225029128
0.1200000000000001,-0.88,0.002361117488594449
0.14000000000000012,-0.88,-0.027847373506360754
0.15999999999999992,-0.88,-0.05761669478590606
0.17999999999999994,-0.88,-0.0864773663701325
0.19999999999999996,-0.88,-0.1139742382276273
0.21999999999999997,-0.88,-0.13967366826336264
0.24,-0.88,-0.16317036111357971
0.26,-0.88,-0.1840937598957866
0.28,-0.88,-0.20211389011215533
0.30000000000000004,-0.88,-0.21694656354446976
0.32000000000000006,-0.88,-0.22835786007209258
0.3400000000000001,-0.88,-0.2361678167320052
0.3600000000000001,-0.88,-0.24025326584223877
0.3800000000000001,-0.88,-0.24054977742979594
0.40000000000000013,-0.88,-0.23705267532981342
0.41999999999999993,-0.88,-0.22981711093147555
0.43999999999999995,-0.88,-0.2189571934076608
0.45999999999999996,-0.88,-0.20464419014511986
0.48,-0.88,-0.1871038257554769
0.5,-0.88,-0.1666127222632622
0.52,-0.88,-0.14349403661134008
0.54,-0.88,-0.11811236428287455
0.56,-0.88,-0.09086798941276175
0.5800000000000001,-0.88,-0.06219057206770391
0.6000000000000001,-0.88,-0.032532372250291375
0.6200000000000001,-0.88,-0.0023611174885945045
0.6400000000000001,-0.88,0.02784737350636071
0.6600000000000001,-0.88,0.057616694785906045
0.6799999999999999,-0.88,0.08647736637013247
0.7,-0.88,0.11397423822762726
0.72,-0.88,0.13967366826336264
0.74,-0.88,0.1631703611135797
0.76,-0.88,0.1840937598957866
0.78,-0.88,0.20211389011215536
0.8,-0.88,0.2169465635444697
0.8200000000000001,-0.88,0.22835786007209258
0.8400000000000001,-0.88,0.23616781673200518
0.8600000000000001,-0.88,0.2402532658422388
0.8800000000000001,-0.88,0.24054977742979594
0.9000000000000001,-0.88,0.23705267532981342
0.9199999999999999,-0.88,0.2298171109314756
0.94,-0.88,0.2189571934076608
0.96,-0.88,0.20464419014511992
0.98,-0.88,0.1871038257554769
1.0,-0.88,0.1666127222632623

-1.0,-0.86,0.06790483726580285
-0.98,-0.86,0.053207821961237654
-0.96,-0.86,0.03767168751953156
-0.94,-0.86,0.02154144806166714
-0.92,-0.86,0.005071487099632843
-0.9,-0.86,-0.011478454243522226
-0.88,-0.86,-0.02784737350636079
-0.86,-0.86,-0.04377712305378943
-0.84,-0.86,-0.05901648121947407
-0.8200000000000001,-0.86,-0.07332511422159058
-0.8,-0.86,-0.0864773663701325
-0.78,-0.86,-0.0982658187919428
-0.76,-0.86,-0.10850456055024935
-0.74,-0.86,-0.11703212057119589
-0.72,-0.86,-0.1237140141391345
-0.7,-0.86,-0.12844486380092912
-0.6799999999999999,-0.86,-0.13115006123134068
-0.6599999999999999,-0.86,-0.13178694385088496
-0.64,-0.86,-0.13034546764019647
-0.62,-0.86,-0.126848365540214
-0.6,-0.86,-0.12135078894012175
-0.5800000000000001,-0.86,-0.11393943790699626
-0.56,-0.86,-0.10473119387395644
-0.54,-0.86,-0.0938712763501417
-0.52,-0.86,-0.0815309527223028
-0.5,-0.86,-0.06790483726580288
-0.48,-0.86,-0.053207821961237675
-0.45999999999999996,-0.86,-0.03767168751953152
-0.43999999999999995,-0.86,-0.021541448061667086
-0.42000000000000004,-0.86,-0.005071487099632788
-0.4,-0.86,0.01147845424352227
-0.38,-0.86,0.027847373506360795
-0.36,-0.86,0.04377712305378942
-0.33999999999999997,-0.86,0.05901648121947405
-0.31999999999999995,-0.86,0.07332511422159055
-0.29999999999999993,-0.86,0.08647736637013248
-0.28,-0.86,0.09826581879194274
-0.26,-0.86,0.10850456055024932
-0.24,-0.86,0.1170321205711958
-0.21999999999999997,-0.86,0.12371401413913446
-0.19999999999999996,-0.86,0.12844486380092912
-0.17999999999999994,-0.86,0.1311500612313407
-0.16000000000000003,-0.86,0.13178694385088496
-0.14,-0.86,0.1303454676401965
-0.12,-0.86,0.126848365540214
-0.09999999999999998,-0.86,0.12135078894012175
-0.07999999999999996,-0.86,0.11393943790699625
-0.05999999999999994,-0.86,0.10473119387395646
-0.040000000000000036,-0.86,0.09387127635014172
-0.020000000000000018,-0.86,0.08153095272230282
0.0,-0.86,0.06790483726580289
0.020000000000000018,-0.86,0.05320782196123763
0.040000000000000036,-0.86,0.0376716875195315
0.06000000000000005,-0.86,0.02154144806166703
0.08000000000000007,-0.86,0.005071487099632746
0.10000000000000009,-0.86,-0.011478454243522278
0.1200000000000001,-0.86,-0.02784737350636078
0.14000000000000012,-0.86,-0.04377712305378937
0.15999999999999992,-0.86,-0.05901648121947401
0.17999999999999994,-0.86,-0.07332511422159052
0.19999999999999996,-0.86,-0.08647736637013248
0.21999999999999997,-0.86,-0.0982658187919428
0.24,-0.86,-0.10850456055024935
0.26,-0.86,-0.11703212057119586
0.28,-0.86,-0.12371401413913446
0.30000000000000004,-0.86,-0.12844486380092907
0.32000000000000006,-0.86,-0.13115006123134063