TITLE = "Solution" 
VARIABLES = "x", "y", "sol" 
ZONE STRANDID=1, SOLUTIONTIME= 0.37000000000000016, I= 101, J =101, DATAPACKING=POINT 
-1.0,-1.0,0.4044389975828358
-0.98,-1.0,0.46379283381558195
-0.96,-1.0,0.5158323800026469
-0.94,-1.0,0.559736941413742
-0.92,-1.0,0.5948141168881013
-0.9,-1.0,0.620510718414405
-0.88,-1.0,0.6364214952361774
-0.86,-1.0,0.6422955248983017
-0.84,-1.0,0.6380401704440315
-0.8200000000000001,-1.0,0.6237225413551363
-0.8,-1.0,0.5995684351952849
-0.78,-1.0,0.5659587766475815
-0.76,-1.0,0.5234236101047602
-0.74,-1.0,0.4726337405524785
-0.72,-1.0,0.414390154573973
-0.7,-1.0,0.3496113883131564
-0.6799999999999999,-1.0,0.27931904161092136
-0.6599999999999999,-1.0,0.2046216667653742
-0.64,-1.0,0.1266972859998784
-0.62,-1.0,0.04677481334887438
-0.6,-1.0,-0.033885326050560494
-0.5800000000000001,-1.0,-0.11401107361606538
-0.56,-1.0,-0.1923387984437309
-0.54,-1.0,-0.2676332255223099
-0.52,-1.0,-0.3387069167580625
-0.5,-1.0,-0.4044389975828359
-0.48,-1.0,-0.4637928338155819
-0.45999999999999996,-1.0,-0.5158323800026469
-0.43999999999999995,-1.0,-0.5597369414137419
-0.42000000000000004,-1.0,-0.5948141168881013
-0.4,-1.0,-0.620510718414405
-0.38,-1.0,-0.6364214952361773
-0.36,-1.0,-0.6422955248983018
-0.33999999999999997,-1.0,-0.6380401704440317
-0.31999999999999995,-1.0,-0.6237225413551365
-0.29999999999999993,-1.0,-0.599568435195285
-0.28,-1.0,-0.5659587766475815
-0.26,-1.0,-0.5234236101047602
-0.24,-1.0,-0.47263374055247853
-0.21999999999999997,-1.0,-0.41439015457397305
-0.19999999999999996,-1.0,-0.3496113883131563
-0.17999999999999994,-1.0,-0.2793190416109213
-0.16000000000000003,-1.0,-0.2046216667653741
-0.14,-1.0,-0.12669728599987828
-0.12,-1.0,-0.0467748133488743
-0.09999999999999998,-1.0,0.03388532605056048
-0.07999999999999996,-1.0,0.11401107361606534
-0.05999999999999994,-1.0,0.1923387984437308
-0.040000000000000036,-1.0,0.26763322552230984
-0.020000000000000018,-1.0,0.3387069167580624
0.0,-1.0,0.40443899758283575
0.020000000000000018,-1.0,0.46379283381558184
0.040000000000000036,-1.0,0.5158323800026468
0.06000000000000005,-1.0,0.5597369414137419
0.08000000000000007,-1.0,0.5948141168881012
0.10000000000000009,-1.0,0.6205107184144047
0.1200000000000001,-1.0,0.6364214952361771
0.14000000000000012,-1.0,0.6422955248983017
0.15999999999999992,-1.0,0.6380401704440314
0.17999999999999994,-1.0,0.6237225413551364
0.19999999999999996,-1.0,0.5995684351952849
0.21999999999999997,-1.0,0.5659587766475813
0.24,-1.0,0.5234236101047604
0.26,-1.0,0.4726337405524786
0.28,-1.0,0.41439015457397305
0.30000000000000004,-1.0,0.3496113883131563
0.32000000000000006,-1.0,0.27931904161092125
0.3400000000000001,-1.0,0.204621666765374
0.3600000000000001,-1.0,0.1266972859998782
0.3800000000000001,-1.0,0.04677481334887428
0.40000000000000013,-1.0,-0.033885326050560466
0.41999999999999993,-1.0,-0.11401107361606533
0.43999999999999995,-1.0,-0.19233879844373084
0.45999999999999996,-1.0,-0.2676332255223099
0.48,-1.0,-0.33870691675806247
0.5,-1.0,-0.40443899758283597
0.52,-1.0,-0.46379283381558173
0.54,-1.0,-0.5158323800026466
0.56,-1.0,-0.559736941413742
0.5800000000000001,-1.0,-0.5948141168881013
0.6000000000000001,-1.0,-0.6205107184144046
0.6200000000000001,-1.0,-0.6364214952361771
0.6400000000000001,-1.0,-0.6422955248983017
0.6600000000000001,-1.0,-0.6380401704440316
0.6799999999999999,-1.0,-0.6237225413551364
0.7,-1.0,-0.5995684351952849
0.72,-1.0,-0.5659587766475814
0.74,-1.0,-0.5234236101047604
0.76,-1.0,-0.4726337405524784
0.78,-1.0,-0.41439015457397294
0.8,-1.0,-0.34961138831315636
0.8200000000000001,-1.0,-0.27931904161092125
0.8400000000000001,-1.0,-0.20462166676537413
0.8600000000000001,-1.0,-0.1266972859998784
0.8800000000000001,-1.0,-0.046774813348874435
0.9000000000000001,-1.0,0.033885326050560396
0.9199999999999999,-1.0,0.11401107361606524
0.94,-1.0,0.1923387984437308
0.96,-1.0,0.26763322552230984
0.98,-1.0,0.3387069167580624
1.0,-1.0,0.4044389975828358

-1.0,-0.98,0.4637928338155819
-0.98,-0.98,0.5275522350056537
-0.96,-0.98,0.5829918223052564
-0.94,-0.98,0.6292372803046714
-0.92,-0.98,0.6655592905055506
-0.9,-0.98,0.6913850331093085
-0.88,-0.98,0.7063072207275334
-0.86,-0.98,0.7100905215474026
-0.84,-0.98,0.702675270654953
-0.8200000000000001,-0.98,0.6841784109864152
-0.8,-0.98,0.6548916490682495
-0.78,-0.98,0.6152768546309693
-0.76,-0.98,0.5659587766475814
-0.74,-0.98,0.5077151906690758
-0.72,-0.98,0.4414646328393652
-0.7,-0.98,0.3682519140315893
-0.6799999999999999,-0.98,0.2892316425565044
-0.6599999999999999,-0.98,0.2056500152996951
-0.64,-0.98,0.11882516445224509
-0.62,-0.98,0.0301263697786706
-0.6,-0.98,-0.059047535742934434
-0.5800000000000001,-0.98,-0.14729022635258537
-0.56,-0.98,-0.23321006210573966
-0.54,-0.98,-0.31545203586654813
-0.52,-0.98,-0.39271914257982904
-0.5,-0.98,-0.46379283381558184
-0.48,-0.98,-0.5275522350056538
-0.45999999999999996,-0.98,-0.5829918223052563
-0.43999999999999995,-0.98,-0.6292372803046715
-0.42000000000000004,-0.98,-0.6655592905055506
-0.4,-0.98,-0.6913850331093085
-0.38,-0.98,-0.7063072207275333
-0.36,-0.98,-0.7100905215474026
-0.33999999999999997,-0.98,-0.7026752706549534
-0.31999999999999995,-0.98,-0.6841784109864153
-0.29999999999999993,-0.98,-0.6548916490682497
-0.28,-0.98,-0.6152768546309691
-0.26,-0.98,-0.5659587766475814
-0.24,-0.98,-0.5077151906690761
-0.21999999999999997,-0.98,-0.4414646328393652
-0.19999999999999996,-0.98,-0.36825191403158924
-0.17999999999999994,-0.98,-0.2892316425565043
-0.16000000000000003,-0.98,-0.20565001529969495
-0.14,-0.98,-0.11882516445224496
-0.12,-0.98,-0.0301263697786706
-0.09999999999999998,-0.98,0.059047535742934434
-0.07999999999999996,-0.98,0.14729022635258535
-0.05999999999999994,-0.98,0.23321006210573964
-0.040000000000000036,-0.98,0.31545203586654813
-0.020000000000000018,-0.98,0.3927191425798288
0.0,-0.98,0.46379283381558184
0.020000000000000018,-0.98,0.5275522350056535
0.040000000000000036,-0.98,0.5829918223052563
0.06000000000000005,-0.98,0.6292372803046713
0.08000000000000007,-0.98,0.6655592905055504
0.10000000000000009,-0.98,0.6913850331093083
0.1200000000000001,-0.98,0.7063072207275332
0.14000000000000012,-0.98,0.7100905215474025
0.15999999999999992,-0.98,0.7026752706549532
0.17999999999999994,-0.98,0.6841784109864152
0.19999999999999996,-0.98,0.6548916490682493
0.21999999999999997,-0.98,0.6152768546309691
0.24,-0.98,0.5659587766475815
0.26,-0.98,0.5077151906690759
0.28,-0.98,0.4414646328393651
0.30000000000000004,-0.98,0.3682519140315892
0.32000000000000006,-0.98,0.2892316425565042
0.3400000000000001,-0.98,0.20565001529969487
0.3600000000000001,-0.98,0.11882516445224493
0.3800000000000001,-0.98,0.0301263697786706
0.40000000000000013,-0.98,-0.059047535742934434
0.41999999999999993,-0.98,-0.14729022635258535
0.43999999999999995,-0.98,-0.23321006210573972
0.45999999999999996,-0.98,-0.31545203586654813
0.48,-0.98,-0.39271914257982904
0.5,-0.98,-0.4637928338155818
0.52,-0.98,-0.5275522350056536
0.54,-0.98,-0.5829918223052565
0.56,-0.98,-0.6292372803046715
0.5800000000000001,-0.98,-0.6655592905055503
0.6000000000000001,-0.98,-0.6913850331093082
0.6200000000000001,-0.98,-0.7063072207275332
0.6400000000000001,-0.98,-0.7100905215474025
0.6600000000000001,-0.98,-0.7026752706549533
0.6799999999999999,-0.98,-0.6841784109864153
0.7,-0.98,-0.6548916490682494
0.72,-0.98,-0.615276854630969
0.74,-0.98,-0.5659587766475813
0.76,-0.98,-0.5077151906690757
0.78,-0.98,-0.44146463283936516
0.8,-0.98,-0.3682519140315892
0.8200000000000001,-0.98,-0.28923164255650424
0.8400000000000001,-0.98,-0.20565001529969507
0.8600000000000001,-0.98,-0.11882516445224513
0.8800000000000001,-0.98,-0.030126369778670684
0.9000000000000001,-0.98,0.05904753574293434
0.9199999999999999,-0.98,0.14729022635258526
0.94,-0.98,0.2332100621057397
0.96,-0.98,0.3154520358665481
0.98,-0.98,0.39271914257982893
1.0,-0.98,0.4637928338155819

-1.0,-0.96,0.5158323800026468
-0.98,-0.96,0.5829918223052564
-0.96,-0.96,0.6409571353076784
-0.94,-0.96,0.688814171397065
-0.92,-0.96,0.7258081965258788
-0.9,-0.96,0.751355792818679
-0.88,-0.96,0.765054059420534
-0.86,-0.96,0.7666869664841844
-0.84,-0.96,0.756228762089786
-0.8200000000000001,-0.96,0.7338443783680662
-0.8,-0.96,0.6998868304220994
-0.78,-0.96,0.6548916490682493
-0.76,-0.96,0.5995684351952846
-0.74,-0.96,0.5347896689344681
-0.72,-0.96,0.4615769501266922
-0.7,-0.96,0.38108488708271326
-0.6799999999999999,-0.96,0.29458288772036306
-0.6599999999999999,-0.96,0.20343514024337522
-0.64,-0.96,0.10907909907848726
-0.62,-0.96,0.013002815360436269
-0.6,-0.96,-0.08327853052335424
-0.5800000000000001,-0.96,-0.1782465242326087
-0.56,-0.96,-0.27040346377540264
-0.54,-0.96,-0.35829597916325895
-0.52,-0.96,-0.4405379529240675
-0.5,-0.96,-0.5158323800026469
-0.48,-0.96,-0.5829918223052565
-0.45999999999999996,-0.96,-0.6409571353076784
-0.43999999999999995,-0.96,-0.688814171397065
-0.42000000000000004,-0.96,-0.7258081965258789
-0.4,-0.96,-0.7513557928186789
-0.38,-0.96,-0.7650540594205341
-0.36,-0.96,-0.7666869664841848
-0.33999999999999997,-0.96,-0.7562287620897861
-0.31999999999999995,-0.96,-0.7338443783680665
-0.29999999999999993,-0.96,-0.6998868304220992
-0.28,-0.96,-0.6548916490682494
-0.26,-0.96,-0.5995684351952849
-0.24,-0.96,-0.5347896689344681
-0.21999999999999997,-0.96,-0.46157695012669214
-0.19999999999999996,-0.96,-0.3810848870827132
-0.17999999999999994,-0.96,-0.2945828877203629
-0.16000000000000003,-0.96,-0.203435140243375
-0.14,-0.96,-0.10907909907848724
-0.12,-0.96,-0.013002815360436248
-0.09999999999999998,-0.96,0.08327853052335422
-0.07999999999999996,-0.96,0.1782465242326087
-0.05999999999999994,-0.96,0.27040346377540264
-0.040000000000000036,-0.96,0.3582959791632587
-0.020000000000000018,-0.96,0.44053795292406744
0.0,-0.96,0.5158323800026465
0.020000000000000018,-0.96,0.5829918223052564
0.040000000000000036,-0.96,0.6409571353076783
0.06000000000000005,-0.96,0.6888141713970649
0.08000000000000007,-0.96,0.7258081965258786
0.10000000000000009,-0.96,0.751355792818679
0.1200000000000001,-0.96,0.7650540594205341
0.14000000000000012,-0.96,0.7666869664841846
0.15999999999999992,-0.96,0.7562287620897861
0.17999999999999994,-0.96,0.7338443783680659
0.19999999999999996,-0.96,0.6998868304220993
0.21999999999999997,-0.96,0.6548916490682494
0.24,-0.96,0.5995684351952847
0.26,-0.96,0.534789668934468
0.28,-0.96,0.46157695012669214
0.30000000000000004,-0.96,0.38108488708271304
0.32000000000000006,-0.96,0.2945828877203628
0.3400000000000001,-0.96,0.20343514024337495
0.3600000000000001,-0.96,0.10907909907848719
0.3800000000000001,-0.96,0.013002815360436227
0.40000000000000013,-0.96,-0.08327853052335422
0.41999999999999993,-0.96,-0.17824652423260867
0.43999999999999995,-0.96,-0.2704034637754026
0.45999999999999996,-0.96,-0.3582959791632589
0.48,-0.96,-0.44053795292406744
0.5,-0.96,-0.5158323800026466
0.52,-0.96,-0.5829918223052566
0.54,-0.96,-0.6409571353076785
0.56,-0.96,-0.6888141713970648
0.5800000000000001,-0.96,-0.7258081965258785
0.6000000000000001,-0.96,-0.7513557928186789
0.6200000000000001,-0.96,-0.7650540594205338
0.6400000000000001,-0.96,-0.7666869664841846
0.6600000000000001,-0.96,-0.7562287620897861
0.6799999999999999,-0.96,-0.7338443783680662
0.7,-0.96,-0.6998868304220991
0.72,-0.96,-0.6548916490682493
0.74,-0.96,-0.5995684351952846
0.76,-0.96,-0.5347896689344679
0.78,-0.96,-0.4615769501266921
0.8,-0.96,-0.3810848870827131
0.8200000000000001,-0.96,-0.29458288772036295
0.8400000000000001,-0.96,-0.2034351402433752
0.8600000000000001,-0.96,-0.1090790990784873
0.8800000000000001,-0.96,-0.013002815360436341
0.9000000000000001,-0.96,0.08327853052335411
0.9199999999999999,-0.96,0.17824652423260867
0.94,-0.96,0.27040346377540253
0.96,-0.96,0.35829597916325884
0.98,-0.96,0.44053795292406744
1.0,-0.96,0.5158323800026468

-1.0,-0.94,0.5597369414137419
-0.98,-0.94,0.6292372803046715
-0.96,-0.94,0.6888141713970649
-0.94,-0.94,0.7375280515288856
-0.92,-0.94,0.7746106737101934
-0.9,-0.94,0.7994772228371044
-0.88,-0.94,0.8117355385753302
-0.86,-0.94,0.8111922999629171
-0.84,-0.94,0.7978560741972973
-0.8200000000000001,-0.94,0.7719371815254701
-0.8,-0.94,0.7338443783680658
-0.78,-0.94,0.6841784109864146
-0.76,-0.94,0.6237225413551359
-0.74,-0.94,0.5534301946529009
-0.72,-0.94,0.47440992317781605
-0.7,-0.94,0.38790792381546585
-0.6799999999999999,-0.94,0.2952883847695841
-0.6599999999999999,-0.94,0.1980119714991552
-0.64,-0.94,0.09761279115156646
-0.62,-0.94,-0.00432580122353751
-0.6,-0.94,-0.10619617312923792
-0.5800000000000001,-0.94,-0.20639176794617145
-0.56,-0.94,-0.303332441290128
-0.54,-0.94,-0.3954893808329219
-0.52,-0.94,-0.4814092165860765
-0.5,-0.94,-0.5597369414137421
-0.48,-0.94,-0.6292372803046715
-0.45999999999999996,-0.94,-0.6888141713970649
-0.43999999999999995,-0.94,-0.7375280515288858
-0.42000000000000004,-0.94,-0.7746106737101934
-0.4,-0.94,-0.7994772228371044
-0.38,-0.94,-0.8117355385753305
-0.36,-0.94,-0.8111922999629172
-0.33999999999999997,-0.94,-0.7978560741972975
-0.31999999999999995,-0.94,-0.7719371815254699
-0.29999999999999993,-0.94,-0.7338443783680658
-0.28,-0.94,-0.684178410986415
-0.26,-0.94,-0.623722541355136
-0.24,-0.94,-0.5534301946529009
-0.21999999999999997,-0.94,-0.47440992317781605
-0.19999999999999996,-0.94,-0.3879079238154657
-0.17999999999999994,-0.94,-0.2952883847695838
-0.16000000000000003,-0.94,-0.19801197149915511
-0.14,-0.94,-0.09761279115156637
-0.12,-0.94,0.004325801223537535
-0.09999999999999998,-0.94,0.10619617312923793
-0.07999999999999996,-0.94,0.20639176794617142
-0.05999999999999994,-0.94,0.30333244129012776
-0.040000000000000036,-0.94,0.39548938083292184
-0.020000000000000018,-0.94,0.48140921658607627
0.0,-0.94,0.5597369414137419
0.020000000000000018,-0.94,0.6292372803046715
0.040000000000000036,-0.94,0.6888141713970649
0.06000000000000005,-0.94,0.7375280515288856
0.08000000000000007,-0.94,0.7746106737101935
0.10000000000000009,-0.94,0.7994772228371044
0.1200000000000001,-0.94,0.8117355385753304
0.14000000000000012,-0.94,0.8111922999629173
0.15999999999999992,-0.94,0.7978560741972972
0.17999999999999994,-0.94,0.7719371815254701
0.19999999999999996,-0.94,0.7338443783680658
0.21999999999999997,-0.94,0.6841784109864147
0.24,-0.94,0.6237225413551357
0.26,-0.94,0.5534301946529009
0.28,-0.94,0.47440992317781583
0.30000000000000004,-0.94,0.3879079238154656
0.32000000000000006,-0.94,0.29528838476958363
0.3400000000000001,-0.94,0.19801197149915503
0.3600000000000001,-0.94,0.0976127911515663
0.3800000000000001,-0.94,-0.004325801223537552
0.40000000000000013,-0.94,-0.10619617312923794
0.41999999999999993,-0.94,-0.20639176794617142
0.43999999999999995,-0.94,-0.30333244129012793
0.45999999999999996,-0.94,-0.3954893808329219
0.48,-0.94,-0.4814092165860764
0.5,-0.94,-0.559736941413742
0.52,-0.94,-0.6292372803046716
0.54,-0.94,-0.6888141713970649
0.56,-0.94,-0.7375280515288855
0.5800000000000001,-0.94,-0.7746106737101934
0.6000000000000001,-0.94,-0.7994772228371041
0.6200000000000001,-0.94,-0.8117355385753304
0.6400000000000001,-0.94,-0.8111922999629172
0.6600000000000001,-0.94,-0.7978560741972973
0.6799999999999999,-0.94,-0.7719371815254699
0.7,-0.94,-0.7338443783680657
0.72,-0.94,-0.6841784109864146
0.74,-0.94,-0.6237225413551357
0.76,-0.94,-0.5534301946529008
0.78,-0.94,-0.47440992317781594
0.8,-0.94,-0.3879079238154658
0.8200000000000001,-0.94,-0.2952883847695839
0.8400000000000001,-0.94,-0.19801197149915511
0.8600000000000001,-0.94,-0.09761279115156647
0.8800000000000001,-0.94,0.00432580122353742
0.9000000000000001,-0.94,0.10619617312923786
0.9199999999999999,-0.94,0.20639176794617134
0.94,-0.94,0.30333244129012776
0.96,-0.94,0.39548938083292184
0.98,-0.94,0.4814092165860763
1.0,-0.94,0.5597369414137419

-1.0,-0.92,0.5948141168881013
-0.98,-0.92,0.6655592905055505
-0.96,-0.92,0.7258081965258788
-0.94,-0.92,0.7746106737101934
-0.92,-0.92,0.8111970778401115
-0.9,-0.92,0.8349904194668447
-0.88,-0.92,0.8456154633794876
-0.86,-0.92,0.842904646288443
-0.84,-0.92,0.8269007193986009
-0.8200000000000001,-0.92,0.7978560741972969
-0.8,-0.92,0.7562287620897853
-0.78,-0.92,0.7026752706549524
-0.76,-0.92,0.6380401704440308
-0.74,-0.92,0.5633427955984837
-0.72,-0.92,0.4797611683416744
-0.7,-0.92,0.3886134208646868
-0.6799999999999999,-0.92,0.291337007594258
-0.6599999999999999,-0.92,0.18946603567777534
-0.64,-0.92,0.08460707119713044
-0.62,-0.92,-0.021586197338107675
-0.6,-0.92,-0.12743903864635467
-0.5800000000000001,-0.92,-0.23128209018675713
-0.56,-0.92,-0.33147768500369074
-0.54,-0.92,-0.42644567871294536
-0.52,-0.92,-0.5146883693225963
-0.5,-0.92,-0.5948141168881013
-0.48,-0.92,-0.6655592905055505
-0.45999999999999996,-0.92,-0.7258081965258789
-0.43999999999999995,-0.92,-0.7746106737101934
-0.42000000000000004,-0.92,-0.8111970778401113
-0.4,-0.92,-0.834990419466845
-0.38,-0.92,-0.8456154633794877
-0.36,-0.92,-0.8429046462884431
-0.33999999999999997,-0.92,-0.8269007193986007
-0.31999999999999995,-0.92,-0.7978560741972969
-0.29999999999999993,-0.92,-0.7562287620897854
-0.28,-0.92,-0.7026752706549524
-0.26,-0.92,-0.6380401704440308
-0.24,-0.92,-0.5633427955984838
-0.21999999999999997,-0.92,-0.47976116834167426
-0.19999999999999996,-0.92,-0.38861342086468653
-0.17999999999999994,-0.92,-0.29133700759425796
-0.16000000000000003,-0.92,-0.1894660356777752
-0.14,-0.92,-0.0846070711971304
-0.12,-0.92,0.02158619733810773
-0.09999999999999998,-0.92,0.12743903864635467
-0.07999999999999996,-0.92,0.23128209018675702
-0.05999999999999994,-0.92,0.3314776850036906
-0.040000000000000036,-0.92,0.42644567871294514
-0.020000000000000018,-0.92,0.5146883693225962
0.0,-0.92,0.5948141168881013
0.020000000000000018,-0.92,0.6655592905055505
0.040000000000000036,-0.92,0.7258081965258787
0.06000000000000005,-0.92,0.7746106737101933
0.08000000000000007,-0.92,0.8111970778401114
0.10000000000000009,-0.92,0.8349904194668449
0.1200000000000001,-0.92,0.8456154633794878
0.14000000000000012,-0.92,0.8429046462884427
0.15999999999999992,-0.92,0.8269007193986009
0.17999999999999994,-0.92,0.7978560741972969
0.19999999999999996,-0.92,0.7562287620897853
0.21999999999999997,-0.92,0.7026752706549523
0.24,-0.92,0.6380401704440307
0.26,-0.92,0.5633427955984835
0.28,-0.92,0.47976116834167426
0.30000000000000004,-0.92,0.3886134208646864
0.32000000000000006,-0.92,0.29133700759425785
0.3400000000000001,-0.92,0.1894660356777751
0.3600000000000001,-0.92,0.08460707119713035
0.3800000000000001,-0.92,-0.021586197338107745
0.40000000000000013,-0.92,-0.1274390386463547
0.41999999999999993,-0.92,-0.2312820901867571
0.43999999999999995,-0.92,-0.33147768500369074
0.45999999999999996,-0.92,-0.42644567871294525
0.48,-0.92,-0.5146883693225963
0.5,-0.92,-0.5948141168881014
0.52,-0.92,-0.6655592905055506
0.54,-0.92,-0.7258081965258787
0.56,-0.92,-0.7746106737101933
0.5800000000000001,-0.92,-0.8111970778401112
0.6000000000000001,-0.92,-0.834990419466845
0.6200000000000001,-0.92,-0.8456154633794877
0.6400000000000001,-0.92,-0.8429046462884429
0.6600000000000001,-0.92,-0.8269007193986008
0.6799999999999999,-0.92,-0.7978560741972969
0.7,-0.92,-0.7562287620897852
0.72,-0.92,-0.7026752706549522
0.74,-0.92,-0.6380401704440307
0.76,-0.92,-0.5633427955984835
0.78,-0.92,-0.4797611683416744
0.8,-0.92,-0.3886134208646867
0.8200000000000001,-0.92,-0.2913370075942579
0.8400000000000001,-0.92,-0.18946603567777526
0.8600000000000001,-0.92,-0.08460707119713051
0.8800000000000001,-0.92,0.021586197338107613
0.9000000000000001,-0.92,0.12743903864635459
0.9199999999999999,-0.92,0.2312820901867569
0.94,-0.92,0.3314776850036906
0.96,-0.92,0.42644567871294514
0.98,-0.92,0.5146883693225962
1.0,-0.92,0.5948141168881013

-1.0,-0.9,0.620510718414405
-0.98,-0.9,0.6913850331093085
-0.96,-0.9,0.751355792818679
-0.94,-0.9,0.7994772228371044
-0.92,-0.9,0.8349904194668447
-0.9,-0.9,0.8573353183824947
-0.88,-0.9,0.8661595271799576
-0.86,-0.9,0.8613238828151709
-0.84,-0.9,0.8429046462884421
-0.8200000000000001,-0.9,0.8111922999629159
-0.8,-0.9,0.7666869664841831
-0.78,-0.9,0.7100905215474012
-0.76,-0.9,0.6422955248982999
-0.74,-0.9,0.5643711441328041
-0.72,-0.9,0.4775462932853544
-0.7,-0.9,0.3831902521204667
-0.6799999999999999,-0.9,0.28279107177287816
-0.6599999999999999,-0.9,0.17793210729223338
-0.64,-0.9,0.07026704718810128
-0.62,-0.9,-0.038506166225686624
-0.6,-0.9,-0.14667211439562686
-0.5800000000000001,-0.9,-0.2525249557038739
-0.56,-0.9,-0.3543953276095745
-0.54,-0.9,-0.450676673493365
-0.52,-0.9,-0.5398505790149701
-0.5,-0.9,-0.620510718414405
-0.48,-0.9,-0.6913850331093084
-0.45999999999999996,-0.9,-0.751355792818679
-0.43999999999999995,-0.9,-0.7994772228371043
-0.42000000000000004,-0.9,-0.8349904194668449
-0.4,-0.9,-0.8573353183824948
-0.38,-0.9,-0.8661595271799576
-0.36,-0.9,-0.8613238828151708
-0.33999999999999997,-0.9,-0.8429046462884421
-0.31999999999999995,-0.9,-0.811192299962916
-0.29999999999999993,-0.9,-0.766686966484183
-0.28,-0.9,-0.7100905215474012
-0.26,-0.9,-0.6422955248982999
-0.24,-0.9,-0.564371144132804
-0.21999999999999997,-0.9,-0.47754629328535425
-0.19999999999999996,-0.9,-0.38319025212046665
-0.17999999999999994,-0.9,-0.28279107177287804
-0.16000000000000003,-0.9,-0.1779321072922333
-0.14,-0.9,-0.0702670471881012
-0.12,-0.9,0.038506166225686665
-0.09999999999999998,-0.9,0.14667211439562683
-0.07999999999999996,-0.9,0.25252495570387384
-0.05999999999999994,-0.9,0.3543953276095743
-0.040000000000000036,-0.9,0.4506766734933649
-0.020000000000000018,-0.9,0.5398505790149701
0.0,-0.9,0.6205107184144049
0.020000000000000018,-0.9,0.6913850331093085
0.040000000000000036,-0.9,0.7513557928186789
0.06000000000000005,-0.9,0.7994772228371045
0.08000000000000007,-0.9,0.8349904194668449
0.10000000000000009,-0.9,0.8573353183824948
0.1200000000000001,-0.9,0.8661595271799573
0.14000000000000012,-0.9,0.8613238828151709
0.15999999999999992,-0.9,0.8429046462884421
0.17999999999999994,-0.9,0.811192299962916
0.19999999999999996,-0.9,0.766686966484183
0.21999999999999997,-0.9,0.710090521547401
0.24,-0.9,0.6422955248982998
0.26,-0.9,0.564371144132804
0.28,-0.9,0.4775462932853541
0.30000000000000004,-0.9,0.38319025212046653
0.32000000000000006,-0.9,0.2827910717728779
0.3400000000000001,-0.9,0.17793210729223324
0.3600000000000001,-0.9,0.07026704718810114
0.3800000000000001,-0.9,-0.038506166225686714
0.40000000000000013,-0.9,-0.14667211439562686
0.41999999999999993,-0.9,-0.2525249557038739
0.43999999999999995,-0.9,-0.35439532760957443
0.45999999999999996,-0.9,-0.4506766734933649
0.48,-0.9,-0.5398505790149702
0.5,-0.9,-0.6205107184144051
0.52,-0.9,-0.6913850331093083
0.54,-0.9,-0.7513557928186789
0.56,-0.9,-0.7994772228371043
0.5800000000000001,-0.9,-0.8349904194668449
0.6000000000000001,-0.9,-0.8573353183824947
0.6200000000000001,-0.9,-0.8661595271799574
0.6400000000000001,-0.9,-0.8613238828151708
0.6600000000000001,-0.9,-0.8429046462884422
0.6799999999999999,-0.9,-0.811192299962916
0.7,-0.9,-0.7666869664841829
0.72,-0.9,-0.7100905215474009
0.74,-0.9,-0.6422955248982997
0.76,-0.9,-0.5643711441328041
0.78,-0.9,-0.47754629328535436
0.8,-0.9,-0.38319025212046665
0.8200000000000001,-0.9,-0.28279107177287804
0.8400000000000001,-0.9,-0.17793210729223338
0.8600000000000001,-0.9,-0.0702670471881013
0.8800000000000001,-0.9,0.038506166225686575
0.9000000000000001,-0.9,0.14667211439562666
0.9199999999999999,-0.9,0.2525249557038738
0.94,-0.9,0.35439532760957426
0.96,-0.9,0.45067667349336477
0.98,-0.9,0.5398505790149701
1.0,-0.9,0.620510718414405

-1.0,-0.88,0.6364214952361774
-0.98,-0.88,0.7063072207275334
-0.96,-0.88,0.7650540594205341
-0.94,-0.88,0.8117355385753302
-0.92,-0.88,0.8456154633794878
-0.9,-0.88,0.8661595271799577
-0.88,-0.88,0.8730437378181776
-0.86,-0.88,0.8661595271799561
-0.84,-0.88,0.8456154633794856
-0.8200000000000001,-0.88,0.8117355385753281
-0.8,-0.88,0.7650540594205316
-0.78,-0.88,0.7063072207275306
-0.76,-0.88,0.6364214952361744
-0.74,-0.88,0.5564990225851706
-0.72,-0.88,0.46780022791159653
-0.7,-0.88,0.37172394419354593
-0.6799999999999999,-0.88,0.2697853518184422
-0.6599999999999999,-0.88,0.16359208328320426
-0.64,-0.88,0.054818869869416406
-0.62,-0.88,-0.05481886986941784
-0.6,-0.88,-0.16359208328320585
-0.5800000000000001,-0.88,-0.26978535181844415
-0.56,-0.88,-0.37172394419354815
-0.54,-0.88,-0.46780022791159914
-0.52,-0.88,-0.5564990225851736
-0.5,-0.88,-0.6364214952361772
-0.48,-0.88,-0.7063072207275333
-0.45999999999999996,-0.88,-0.7650540594205341
-0.43999999999999995,-0.88,-0.8117355385753304
-0.42000000000000004,-0.88,-0.8456154633794877
-0.4,-0.88,-0.8661595271799575
-0.38,-0.88,-0.8730437378181776
-0.36,-0.88,-0.8661595271799561
-0.33999999999999997,-0.88,-0.8456154633794857
-0.31999999999999995,-0.88,-0.8117355385753281
-0.29999999999999993,-0.88,-0.7650540594205316
-0.28,-0.88,-0.7063072207275306
-0.26,-0.88,-0.6364214952361744
-0.24,-0.88,-0.5564990225851706
-0.21999999999999997,-0.88,-0.4678002279115966
-0.19999999999999996,-0.88,-0.37172394419354576
-0.17999999999999994,-0.88,-0.2697853518184421
-0.16000000000000003,-0.88,-0.16359208328320413
-0.14,-0.88,-0.05481886986941632
-0.12,-0.88,0.054818869869417856
-0.09999999999999998,-0.88,0.16359208328320576
-0.07999999999999996,-0.88,0.26978535181844404
-0.05999999999999994,-0.88,0.37172394419354804
-0.040000000000000036,-0.88,0.46780022791159914
-0.020000000000000018,-0.88,0.5564990225851736
0.0,-0.88,0.6364214952361773
0.020000000000000018,-0.88,0.7063072207275332
0.040000000000000036,-0.88,0.7650540594205343
0.06000000000000005,-0.88,0.8117355385753304
0.08000000000000007,-0.88,0.8456154633794877
0.10000000000000009,-0.88,0.8661595271799574
0.1200000000000001,-0.88,0.8730437378181777
0.14000000000000012,-0.88,0.866159527179956
0.15999999999999992,-0.88,0.8456154633794858
0.17999999999999994,-0.88,0.811735538575328
0.19999999999999996,-0.88,0.7650540594205315
0.21999999999999997,-0.88,0.7063072207275305
0.24,-0.88,0.6364214952361744
0.26,-0.88,0.5564990225851704
0.28,-0.88,0.4678002279115965
0.30000000000000004,-0.88,0.37172394419354565
0.32000000000000006,-0.88,0.26978535181844204
0.3400000000000001,-0.88,0.16359208328320404
0.3600000000000001,-0.88,0.05481886986941624
0.3800000000000001,-0.88,-0.05481886986941786
0.40000000000000013,-0.88,-0.16359208328320582
0.41999999999999993,-0.88,-0.2697853518184441
0.43999999999999995,-0.88,-0.3717239441935481
0.45999999999999996,-0.88,-0.4678002279115992
0.48,-0.88,-0.5564990225851737
0.5,-0.88,-0.6364214952361771
0.52,-0.88,-0.7063072207275332
0.54,-0.88,-0.7650540594205341
0.56,-0.88,-0.8117355385753303
0.5800000000000001,-0.88,-0.8456154633794877
0.6000000000000001,-0.88,-0.8661595271799574
0.6200000000000001,-0.88,-0.8730437378181776
0.6400000000000001,-0.88,-0.8661595271799563
0.6600000000000001,-0.88,-0.8456154633794857
0.6799999999999999,-0.88,-0.8117355385753281
0.7,-0.88,-0.7650540594205314
0.72,-0.88,-0.7063072207275303
0.74,-0.88,-0.6364214952361743
0.76,-0.88,-0.5564990225851707
0.78,-0.88,-0.46780022791159653
0.8,-0.88,-0.37172394419354576
0.8200000000000001,-0.88,-0.2697853518184421
0.8400000000000001,-0.88,-0.16359208328320418
0.8600000000000001,-0.88,-0.05481886986941639
0.8800000000000001,-0.88,0.05481886986941769
0.9000000000000001,-0.88,0.1635920832832057
0.9199999999999999,-0.88,0.26978535181844393
0.94,-0.88,0.37172394419354793
0.96,-0.88,0.46780022791159903
0.98,-0.88,0.5564990225851735
1.0,-0.88,0.6364214952361774

-1.0,-0.86,0.6422955248983019
-0.98,-0.86,0.7100905215474027
-0.96,-0.86,0.7666869664841843
-0.94,-0.86,0.8111922999629173
-0.92,-0.86,0.8429046462884433
-0.9,-0.86,0.8613238828151709
-0.88,-0.86,0.8661595271799563
-0.86,-0.86,0.8573353183824923
-0.84,-0.86,0.8349904194668423
-0.8200000000000001,-0.86,0.7994772228371014
-0.8,-0.86,0.7513557928186758
-0.78,-0.86,0.6913850331093051
-0.76,-0.86,0.6205107184144014
-0.74,-0.86,0.539850579014967
-0.72,-0.86,0.4506766734933624
-0.7,-0.86,0.3543953276095722
-0.6799999999999999,-0.86,0.2525249557038721
-0.6599999999999999,-0.86,0.14667211439562533
-0.64,-0.86,0.03850616622568519
-0.62,-0.86,-0.07026704718810275
-0.6,-0.86,-0.17793210729223505
-0.5800000000000001,-0.86,-0.28279107177288
-0.56,-0.86,-0.38319025212046876
-0.54,-0.86,-0.4775462932853565
-0.52,-0.86,-0.5643711441328062
-0.5,-0.86,-0.6422955248983018
-0.48,-0.86,-0.7100905215474027
-0.45999999999999996,-0.86,-0.7666869664841846
-0.43999999999999995,-0.86,-0.8111922999629172
-0.42000000000000004,-0.86,-0.8429046462884431
-0.4,-0.86,-0.8613238828151709
-0.38,-0.86,-0.8661595271799561
-0.36,-0.86,-0.8573353183824924
-0.33999999999999997,-0.86,-0.8349904194668423
-0.31999999999999995,-0.86,-0.7994772228371014
-0.29999999999999993,-0.86,-0.7513557928186757
-0.28,-0.86,-0.6913850331093051
-0.26,-0.86,-0.6205107184144014
-0.24,-0.86,-0.539850579014967
-0.21999999999999997,-0.86,-0.45067667349336227
-0.19999999999999996,-0.86,-0.35439532760957215
-0.17999999999999994,-0.86,-0.252524955703872
-0.16000000000000003,-0.86,-0.14667211439562525
-0.14,-0.86,-0.03850616622568514
-0.12,-0.86,0.07026704718810274
-0.09999999999999998,-0.86,0.17793210729223496
-0.07999999999999996,-0.86,0.28279107177287993
-0.05999999999999994,-0.86,0.38319025212046876
-0.040000000000000036,-0.86,0.47754629328535647
-0.020000000000000018,-0.86,0.5643711441328063
0.0,-0.86,0.6422955248983018
0.020000000000000018,-0.86,0.7100905215474028
0.040000000000000036,-0.86,0.7666869664841846
0.06000000000000005,-0.86,0.8111922999629173
0.08000000000000007,-0.86,0.8429046462884429
0.10000000000000009,-0.86,0.8613238828151709
0.1200000000000001,-0.86,0.8661595271799559
0.14000000000000012,-0.86,0.8573353183824923
0.15999999999999992,-0.86,0.8349904194668422
0.17999999999999994,-0.86,0.7994772228371013
0.19999999999999996,-0.86,0.7513557928186756
0.21999999999999997,-0.86,0.691385033109305
0.24,-0.86,0.6205107184144012
0.26,-0.86,0.5398505790149668
0.28,-0.86,0.45067667349336216
0.30000000000000004,-0.86,0.35439532760957204
0.32000000000000006,-0.86,0.25252495570387185
0.3400000000000001,-0.86,0.14667211439562508
0.3600000000000001,-0.86,0.03850616622568508
0.3800000000000001,-0.86,-0.07026704718810278
0.40000000000000013,-0.86,-0.17793210729223502
0.41999999999999993,-0.86,-0.28279107177287993