TITLE = "Solution" 
VARIABLES = "x", "y", "sol" 
ZONE STRANDID=1, SOLUTIONTIME= 0.8800000000000006, I= 101, J =101, DATAPACKING=POINT 
-1.0,-1.0,0.21772892782174785
-0.98,-1.0,0.2785550287221546
-0.96,-1.0,0.33498815041890445
-0.94,-1.0,0.3861383088713273
-0.92,-1.0,0.43119883552500454
-0.9,-1.0,0.46945909895675386
-0.88,-1.0,0.5003157119566825
-0.86,-1.0,0.5232820473049345
-0.84,-1.0,0.5379959121736443
-0.8200000000000001,-1.0,0.5442252601241958
-0.8,-1.0,0.5418718506181768
-0.78,-1.0,0.5309727983293565
-0.76,-1.0,0.5116999878231072
-0.74,-1.0,0.4843573628341315
-0.72,-1.0,0.449376132892198
-0.7,-1.0,0.40730797289026466
-0.6799999999999999,-1.0,0.35881632284186255
-0.6599999999999999,-1.0,0.30466592503576256
-0.64,-1.0,0.24571076359324714
-0.62,-1.0,0.18288059662837064
-0.6,-1.0,0.11716629340709182
-0.5800000000000001,-1.0,0.049604207747032114
-0.56,-1.0,-0.018740165901315747
-0.54,-1.0,-0.08678899593856745
-0.52,-1.0,-0.1534691116646349
-0.5,-1.0,-0.2177289278217477
-0.48,-1.0,-0.2785550287221547
-0.45999999999999996,-1.0,-0.33498815041890456
-0.43999999999999995,-1.0,-0.3861383088713274
-0.42000000000000004,-1.0,-0.4311988355250047
-0.4,-1.0,-0.46945909895675375
-0.38,-1.0,-0.5003157119566825
-0.36,-1.0,-0.5232820473049347
-0.33999999999999997,-1.0,-0.5379959121736445
-0.31999999999999995,-1.0,-0.5442252601241958
-0.29999999999999993,-1.0,-0.5418718506181768
-0.28,-1.0,-0.5309727983293566
-0.26,-1.0,-0.5116999878231073
-0.24,-1.0,-0.48435736283413167
-0.21999999999999997,-1.0,-0.44937613289219797
-0.19999999999999996,-1.0,-0.4073079728902646
-0.17999999999999994,-1.0,-0.3588163228418626
-0.16000000000000003,-1.0,-0.3046659250357627
-0.14,-1.0,-0.24571076359324706
-0.12,-1.0,-0.18288059662837056
-0.09999999999999998,-1.0,-0.11716629340709182
-0.07999999999999996,-1.0,-0.04960420774703203
-0.05999999999999994,-1.0,0.01874016590131579
-0.040000000000000036,-1.0,0.08678899593856754
-0.020000000000000018,-1.0,0.153469111664635
0.0,-1.0,0.21772892782174763
0.020000000000000018,-1.0,0.2785550287221547
0.040000000000000036,-1.0,0.3349881504189047
0.06000000000000005,-1.0,0.3861383088713275
0.08000000000000007,-1.0,0.43119883552500476
0.10000000000000009,-1.0,0.469459098956754
0.1200000000000001,-1.0,0.5003157119566823
0.14000000000000012,-1.0,0.5232820473049347
0.15999999999999992,-1.0,0.5379959121736445
0.17999999999999994,-1.0,0.5442252601241956
0.19999999999999996,-1.0,0.541871850618177
0.21999999999999997,-1.0,0.5309727983293566
0.24,-1.0,0.5116999878231072
0.26,-1.0,0.4843573628341315
0.28,-1.0,0.4493761328921979
0.30000000000000004,-1.0,0.4073079728902647
0.32000000000000006,-1.0,0.35881632284186266
0.3400000000000001,-1.0,0.3046659250357625
0.3600000000000001,-1.0,0.24571076359324703
0.3800000000000001,-1.0,0.18288059662837047
0.40000000000000013,-1.0,0.11716629340709173
0.41999999999999993,-1.0,0.049604207747032086
0.43999999999999995,-1.0,-0.01874016590131581
0.45999999999999996,-1.0,-0.08678899593856751
0.48,-1.0,-0.15346911166463495
0.5,-1.0,-0.21772892782174774
0.52,-1.0,-0.27855502872215465
0.54,-1.0,-0.3349881504189046
0.56,-1.0,-0.3861383088713274
0.5800000000000001,-1.0,-0.43119883552500454
0.6000000000000001,-1.0,-0.4694590989567536
0.6200000000000001,-1.0,-0.5003157119566822
0.6400000000000001,-1.0,-0.5232820473049345
0.6600000000000001,-1.0,-0.5379959121736446
0.6799999999999999,-1.0,-0.5442252601241959
0.7,-1.0,-0.5418718506181769
0.72,-1.0,-0.5309727983293565
0.74,-1.0,-0.5116999878231073
0.76,-1.0,-0.48435736283413133
0.78,-1.0,-0.44937613289219813
0.8,-1.0,-0.4073079728902647
0.8200000000000001,-1.0,-0.3588163228418626
0.8400000000000001,-1.0,-0.3046659250357625
0.8600000000000001,-1.0,-0.24571076359324692
0.8800000000000001,-1.0,-0.1828805966283705
0.9000000000000001,-1.0,-0.11716629340709173
0.9199999999999999,-1.0,-0.04960420774703204
0.94,-1.0,0.018740165901315865
0.96,-1.0,0.08678899593856762
0.98,-1.0,0.15346911166463492
1.0,-1.0,0.21772892782174785

-1.0,-0.98,0.27855502872215454
-0.98,-0.98,0.3428148448792671
-0.96,-0.98,0.40166826614497214
-0.94,-0.98,0.45418713890857937
-0.92,-0.98,0.4995432091733531
-0.9,-0.98,0.5370211846168138
-0.88,-0.98,0.5660300151779611
-0.86,-0.98,0.5861122142698105
-0.84,-0.98,0.5969510736161595
-0.8200000000000001,-0.98,0.5983756579302948
-0.8,-0.98,0.5903635006665787
-0.78,-0.98,0.5730409583312897
-0.76,-0.98,0.5466812177650406
-0.74,-0.98,0.5116999878231069
-0.72,-0.98,0.4686489433984469
-0.7,-0.98,0.4182070251790844
-0.6799999999999999,-0.98,0.36116973234788013
-0.6599999999999999,-0.98,0.2984365770852098
-0.64,-0.98,0.2309968987245361
-0.62,-0.98,0.1599142612801179
-0.6,-0.98,0.08630968040716297
-0.5800000000000001,-0.98,0.011343944315283128
-0.56,-0.98,-0.06380069255499271
-0.54,-0.98,-0.13793915439099005
-0.52,-0.98,-0.20990223336138497
-0.5,-0.98,-0.2785550287221547
-0.48,-0.98,-0.3428148448792672
-0.45999999999999996,-0.98,-0.40166826614497225
-0.43999999999999995,-0.98,-0.4541871389085795
-0.42000000000000004,-0.98,-0.4995432091733531
-0.4,-0.98,-0.5370211846168137
-0.38,-0.98,-0.5660300151779613
-0.36,-0.98,-0.5861122142698106
-0.33999999999999997,-0.98,-0.5969510736161594
-0.31999999999999995,-0.98,-0.5983756579302948
-0.29999999999999993,-0.98,-0.5903635006665788
-0.28,-0.98,-0.5730409583312898
-0.26,-0.98,-0.5466812177650408
-0.24,-0.98,-0.511699987823107
-0.21999999999999997,-0.98,-0.4686489433984468
-0.19999999999999996,-0.98,-0.41820702517908453
-0.17999999999999994,-0.98,-0.36116973234788025
-0.16000000000000003,-0.98,-0.2984365770852097
-0.14,-0.98,-0.23099689872453597
-0.12,-0.98,-0.15991426128011793
-0.09999999999999998,-0.98,-0.08630968040716294
-0.07999999999999996,-0.98,-0.011343944315283096
-0.05999999999999994,-0.98,0.0638006925549928
-0.040000000000000036,-0.98,0.1379391543909902
-0.020000000000000018,-0.98,0.20990223336138494
0.0,-0.98,0.2785550287221547
0.020000000000000018,-0.98,0.34281484487926733
0.040000000000000036,-0.98,0.40166826614497236
0.06000000000000005,-0.98,0.4541871389085796
0.08000000000000007,-0.98,0.49954320917335315
0.10000000000000009,-0.98,0.5370211846168137
0.1200000000000001,-0.98,0.5660300151779613
0.14000000000000012,-0.98,0.5861122142698105
0.15999999999999992,-0.98,0.5969510736161592
0.17999999999999994,-0.98,0.5983756579302951
0.19999999999999996,-0.98,0.5903635006665787
0.21999999999999997,-0.98,0.5730409583312897
0.24,-0.98,0.5466812177650405
0.26,-0.98,0.511699987823107
0.28,-0.98,0.4686489433984469
0.30000000000000004,-0.98,0.41820702517908453
0.32000000000000006,-0.98,0.36116973234787997
0.3400000000000001,-0.98,0.29843657708520976
0.3600000000000001,-0.98,0.23099689872453594
0.3800000000000001,-0.98,0.15991426128011782
0.40000000000000013,-0.98,0.086309680407163
0.41999999999999993,-0.98,0.011343944315283069
0.43999999999999995,-0.98,-0.0638006925549928
0.45999999999999996,-0.98,-0.13793915439099014
0.48,-0.98,-0.209902233361385
0.5,-0.98,-0.27855502872215454
0.52,-0.98,-0.3428148448792673
0.54,-0.98,-0.4016682661449722
0.56,-0.98,-0.45418713890857937
0.5800000000000001,-0.98,-0.4995432091733527
0.6000000000000001,-0.98,-0.5370211846168136
0.6200000000000001,-0.98,-0.566030015177961
0.6400000000000001,-0.98,-0.5861122142698107
0.6600000000000001,-0.98,-0.5969510736161593
0.6799999999999999,-0.98,-0.598375657930295
0.7,-0.98,-0.5903635006665786
0.72,-0.98,-0.5730409583312898
0.74,-0.98,-0.5466812177650404
0.76,-0.98,-0.5116999878231071
0.78,-0.98,-0.46864894339844704
0.8,-0.98,-0.41820702517908453
0.8200000000000001,-0.98,-0.36116973234788
0.8400000000000001,-0.98,-0.2984365770852096
0.8600000000000001,-0.98,-0.23099689872453597
0.8800000000000001,-0.98,-0.15991426128011785
0.9000000000000001,-0.98,-0.08630968040716293
0.9199999999999999,-0.98,-0.011343944315283003
0.94,-0.98,0.06380069255499288
0.96,-0.98,0.13793915439099014
0.98,-0.98,0.20990223336138514
1.0,-0.98,0.27855502872215454

-1.0,-0.96,0.33498815041890445
-0.98,-0.96,0.40166826614497214
-0.96,-0.96,0.4620138333689421
-0.94,-0.96,0.5150731664469981
-0.92,-0.96,0.5600094880003886
-0.9,-0.96,0.5961141253945604
-0.88,-0.96,0.6228176869299419
-0.86,-0.96,0.6396990414891862
-0.84,-0.96,0.646491960026461
-0.8200000000000001,-0.96,0.643089314158542
-0.8,-0.96,0.6295447656434076
-0.78,-0.96,0.6060719201022625
-0.76,-0.96,0.5730409583312891
-0.74,-0.96,0.5309727983293558
-0.72,-0.96,0.48053088010999334
-0.7,-0.96,0.42251070285606224
-0.6799999999999999,-0.96,0.3578272794224315
-0.6599999999999999,-0.96,0.2875007060366535
-0.64,-0.96,0.21264007477208063
-0.62,-0.96,0.13442598250332846
-0.6,-0.96,0.05409191218830928
-0.5800000000000001,-0.96,-0.02709521989486176
-0.56,-0.96,-0.10785504417439112
-0.54,-0.96,-0.18691392997781017
-0.52,-0.96,-0.2630250714485098
-0.5,-0.96,-0.33498815041890445
-0.48,-0.96,-0.40166826614497225
-0.45999999999999996,-0.96,-0.4620138333689422
-0.43999999999999995,-0.96,-0.515073166446998
-0.42000000000000004,-0.96,-0.5600094880003886
-0.4,-0.96,-0.5961141253945603
-0.38,-0.96,-0.6228176869299418
-0.36,-0.96,-0.6396990414891862
-0.33999999999999997,-0.96,-0.646491960026461
-0.31999999999999995,-0.96,-0.643089314158542
-0.29999999999999993,-0.96,-0.6295447656434074
-0.28,-0.96,-0.6060719201022627
-0.26,-0.96,-0.5730409583312891
-0.24,-0.96,-0.5309727983293557
-0.21999999999999997,-0.96,-0.4805308801099935
-0.19999999999999996,-0.96,-0.4225107028560623
-0.17999999999999994,-0.96,-0.3578272794224313
-0.16000000000000003,-0.96,-0.2875007060366533
-0.14,-0.96,-0.21264007477208063
-0.12,-0.96,-0.13442598250332846
-0.09999999999999998,-0.96,-0.05409191218830928
-0.07999999999999996,-0.96,0.02709521989486185
-0.05999999999999994,-0.96,0.10785504417439125
-0.040000000000000036,-0.96,0.18691392997781017
-0.020000000000000018,-0.96,0.2630250714485098
0.0,-0.96,0.33498815041890456
0.020000000000000018,-0.96,0.40166826614497236
0.040000000000000036,-0.96,0.4620138333689423
0.06000000000000005,-0.96,0.5150731664469981
0.08000000000000007,-0.96,0.5600094880003886
0.10000000000000009,-0.96,0.5961141253945604
0.1200000000000001,-0.96,0.6228176869299419
0.14000000000000012,-0.96,0.639699041489186
0.15999999999999992,-0.96,0.6464919600264613
0.17999999999999994,-0.96,0.643089314158542
0.19999999999999996,-0.96,0.6295447656434076
0.21999999999999997,-0.96,0.6060719201022625
0.24,-0.96,0.5730409583312892
0.26,-0.96,0.5309727983293557
0.28,-0.96,0.48053088010999334
0.30000000000000004,-0.96,0.42251070285606207
0.32000000000000006,-0.96,0.3578272794224314
0.3400000000000001,-0.96,0.28750070603665334
0.3600000000000001,-0.96,0.21264007477208052
0.3800000000000001,-0.96,0.13442598250332857
0.40000000000000013,-0.96,0.054091912188309235
0.41999999999999993,-0.96,-0.027095219894861838
0.43999999999999995,-0.96,-0.10785504417439122
0.45999999999999996,-0.96,-0.18691392997781023
0.48,-0.96,-0.2630250714485097
0.5,-0.96,-0.33498815041890456
0.52,-0.96,-0.40166826614497214
0.54,-0.96,-0.4620138333689421
0.56,-0.96,-0.5150731664469977
0.5800000000000001,-0.96,-0.5600094880003884
0.6000000000000001,-0.96,-0.5961141253945602
0.6200000000000001,-0.96,-0.6228176869299421
0.6400000000000001,-0.96,-0.6396990414891861
0.6600000000000001,-0.96,-0.6464919600264611
0.6799999999999999,-0.96,-0.6430893141585418
0.7,-0.96,-0.6295447656434074
0.72,-0.96,-0.6060719201022623
0.74,-0.96,-0.5730409583312893
0.76,-0.96,-0.5309727983293561
0.78,-0.96,-0.4805308801099935
0.8,-0.96,-0.4225107028560621
0.8200000000000001,-0.96,-0.3578272794224312
0.8400000000000001,-0.96,-0.2875007060366533
0.8600000000000001,-0.96,-0.21264007477208052
0.8800000000000001,-0.96,-0.13442598250332843
0.9000000000000001,-0.96,-0.05409191218830916
0.9199999999999999,-0.96,0.027095219894861928
0.94,-0.96,0.10785504417439122
0.96,-0.96,0.18691392997781034
0.98,-0.96,0.2630250714485097
1.0,-0.96,0.33498815041890445

-1.0,-0.94,0.38613830887132733
-0.98,-0.94,0.45418713890857937
-0.96,-0.94,0.5150731664469981
-0.94,-0.94,0.5678361824607514
-0.92,-0.94,0.6116440826682052
-0.9,-0.94,0.6458059903135168
-0.88,-0.94,0.6697831517057855
-0.86,-0.94,0.6831974326865927
-0.84,-0.94,0.6858372820315686
-0.8200000000000001,-0.94,0.6776610677395734
-0.8,-0.94,0.6587977335942253
-0.78,-0.94,0.6295447656434067
-0.76,-0.94,0.5903635006665775
-0.74,-0.94,0.5418718506181753
-0.72,-0.94,0.484834557786971
-0.7,-0.94,0.42015113435334017
-0.6799999999999999,-0.94,0.34884167654483544
-0.6599999999999999,-0.94,0.2720307771093023
-0.64,-0.94,0.19092978981544595
-0.62,-0.94,0.1068177256802721
-0.6,-0.94,0.021021082201303835
-0.5800000000000001,-0.94,-0.06510707630136486
-0.56,-0.94,-0.15020845731767912
-0.54,-0.94,-0.2329409612319107
-0.52,-0.94,-0.3119998470353296
-0.5,-0.94,-0.3861383088713274
-0.48,-0.94,-0.4541871389085794
-0.45999999999999996,-0.94,-0.515073166446998
-0.43999999999999995,-0.94,-0.5678361824607513
-0.42000000000000004,-0.94,-0.6116440826682051
-0.4,-0.94,-0.6458059903135167
-0.38,-0.94,-0.6697831517057855
-0.36,-0.94,-0.6831974326865925
-0.33999999999999997,-0.94,-0.6858372820315686
-0.31999999999999995,-0.94,-0.6776610677395732
-0.29999999999999993,-0.94,-0.6587977335942256
-0.28,-0.94,-0.6295447656434068
-0.26,-0.94,-0.5903635006665775
-0.24,-0.94,-0.5418718506181756
-0.21999999999999997,-0.94,-0.484834557786971
-0.19999999999999996,-0.94,-0.42015113435334
-0.17999999999999994,-0.94,-0.3488416765448353
-0.16000000000000003,-0.94,-0.2720307771093023
-0.14,-0.94,-0.19092978981544592
-0.12,-0.94,-0.1068177256802721
-0.09999999999999998,-0.94,-0.021021082201303772
-0.07999999999999996,-0.94,0.065107076301365
-0.05999999999999994,-0.94,0.15020845731767915
-0.040000000000000036,-0.94,0.23294096123191071
-0.020000000000000018,-0.94,0.31199984703532974
0.0,-0.94,0.3861383088713275
0.020000000000000018,-0.94,0.45418713890857954
0.040000000000000036,-0.94,0.515073166446998
0.06000000000000005,-0.94,0.5678361824607515
0.08000000000000007,-0.94,0.6116440826682054
0.10000000000000009,-0.94,0.645805990313517
0.1200000000000001,-0.94,0.6697831517057853
0.14000000000000012,-0.94,0.6831974326865928
0.15999999999999992,-0.94,0.6858372820315686
0.17999999999999994,-0.94,0.6776610677395736
0.19999999999999996,-0.94,0.6587977335942253
0.21999999999999997,-0.94,0.6295447656434067
0.24,-0.94,0.5903635006665775
0.26,-0.94,0.5418718506181753
0.28,-0.94,0.48483455778697077
0.30000000000000004,-0.94,0.4201511343533401
0.32000000000000006,-0.94,0.3488416765448353
0.3400000000000001,-0.94,0.2720307771093022
0.3600000000000001,-0.94,0.19092978981544603
0.3800000000000001,-0.94,0.10681772568027206
0.40000000000000013,-0.94,0.02102108220130378
0.41999999999999993,-0.94,-0.06510707630136499
0.43999999999999995,-0.94,-0.15020845731767918
0.45999999999999996,-0.94,-0.2329409612319106
0.48,-0.94,-0.31199984703532974
0.5,-0.94,-0.38613830887132733
0.52,-0.94,-0.45418713890857937
0.54,-0.94,-0.5150731664469979
0.56,-0.94,-0.5678361824607512
0.5800000000000001,-0.94,-0.611644082668205
0.6000000000000001,-0.94,-0.645805990313517
0.6200000000000001,-0.94,-0.6697831517057854
0.6400000000000001,-0.94,-0.6831974326865928
0.6600000000000001,-0.94,-0.6858372820315685
0.6799999999999999,-0.94,-0.6776610677395732
0.7,-0.94,-0.6587977335942253
0.72,-0.94,-0.6295447656434069
0.74,-0.94,-0.5903635006665778
0.76,-0.94,-0.5418718506181756
0.78,-0.94,-0.48483455778697077
0.8,-0.94,-0.42015113435333995
0.8200000000000001,-0.94,-0.3488416765448353
0.8400000000000001,-0.94,-0.2720307771093021
0.8600000000000001,-0.94,-0.1909297898154459
0.8800000000000001,-0.94,-0.10681772568027197
0.9000000000000001,-0.94,-0.021021082201303675
0.9199999999999999,-0.94,0.065107076301365
0.94,-0.94,0.1502084573176793
0.96,-0.94,0.2329409612319106
0.98,-0.94,0.3119998470353296
1.0,-0.94,0.38613830887132733

-1.0,-0.92,0.4311988355250045
-0.98,-0.92,0.49954320917335293
-0.96,-0.92,0.5600094880003886
-0.94,-0.92,0.6116440826682051
-0.92,-0.92,0.6536326847738797
-0.9,-0.92,0.6853131089794305
-0.88,-0.92,0.7061857360701679
-0.86,-0.92,0.715921392248168
-0.84,-0.92,0.7143665403997045
-0.8200000000000001,-0.92,0.7015457014672515
-0.8,-0.92,0.6776610677395722
-0.78,-0.92,0.64308931415854
-0.76,-0.92,0.5983756579302926
-0.74,-0.92,0.5442252601241924
-0.72,-0.92,0.4814921048615221
-0.7,-0.92,0.41116553147574403
-0.6799999999999999,-0.92,0.33435463204021093
-0.6599999999999999,-0.92,0.25227076032362794
-0.64,-0.92,0.1662084280174938
-0.62,-0.92,0.07752488951342137
-0.6,-0.92,-0.01238126280940197
-0.5800000000000001,-0.92,-0.10209215522151341
-0.56,-0.92,-0.19019299335888426
-0.54,-0.92,-0.27529437437519855
-0.52,-0.92,-0.35605419865472826
-0.5,-0.92,-0.43119883552500443
-0.48,-0.92,-0.4995432091733529
-0.45999999999999996,-0.92,-0.5600094880003885
-0.43999999999999995,-0.92,-0.6116440826682051
-0.42000000000000004,-0.92,-0.6536326847738796
-0.4,-0.92,-0.6853131089794304
-0.38,-0.92,-0.7061857360701675
-0.36,-0.92,-0.715921392248168
-0.33999999999999997,-0.92,-0.7143665403997045
-0.31999999999999995,-0.92,-0.7015457014672516
-0.29999999999999993,-0.92,-0.6776610677395722
-0.28,-0.92,-0.6430893141585401
-0.26,-0.92,-0.5983756579302926
-0.24,-0.92,-0.5442252601241924
-0.21999999999999997,-0.92,-0.4814921048615219
-0.19999999999999996,-0.92,-0.411165531475744
-0.17999999999999994,-0.92,-0.33435463204021104
-0.16000000000000003,-0.92,-0.252270760323628
-0.14,-0.92,-0.1662084280174939
-0.12,-0.92,-0.07752488951342137
-0.09999999999999998,-0.92,0.012381262809402094
-0.07999999999999996,-0.92,0.10209215522151341
-0.05999999999999994,-0.92,0.19019299335888434
-0.040000000000000036,-0.92,0.27529437437519866
-0.020000000000000018,-0.92,0.3560541986547284
0.0,-0.92,0.43119883552500454
0.020000000000000018,-0.92,0.4995432091733527
0.040000000000000036,-0.92,0.5600094880003887
0.06000000000000005,-0.92,0.6116440826682054
0.08000000000000007,-0.92,0.6536326847738798
0.10000000000000009,-0.92,0.6853131089794303
0.1200000000000001,-0.92,0.706185736070168
0.14000000000000012,-0.92,0.7159213922481679
0.15999999999999992,-0.92,0.7143665403997047
0.17999999999999994,-0.92,0.7015457014672515
0.19999999999999996,-0.92,0.6776610677395721
0.21999999999999997,-0.92,0.64308931415854
0.24,-0.92,0.5983756579302925
0.26,-0.92,0.5442252601241923
0.28,-0.92,0.481492104861522
0.30000000000000004,-0.92,0.41116553147574403
0.32000000000000006,-0.92,0.3343546320402109
0.3400000000000001,-0.92,0.2522707603236281
0.3600000000000001,-0.92,0.16620842801749383
0.3800000000000001,-0.92,0.07752488951342137
0.40000000000000013,-0.92,-0.012381262809402108
0.41999999999999993,-0.92,-0.10209215522151346
0.43999999999999995,-0.92,-0.1901929933588843
0.45999999999999996,-0.92,-0.2752943743751986
0.48,-0.92,-0.35605419865472826
0.5,-0.92,-0.4311988355250045
0.52,-0.92,-0.4995432091733527
0.54,-0.92,-0.5600094880003885
0.56,-0.92,-0.611644082668205
0.5800000000000001,-0.92,-0.6536326847738798
0.6000000000000001,-0.92,-0.6853131089794304
0.6200000000000001,-0.92,-0.706185736070168
0.6400000000000001,-0.92,-0.7159213922481678
0.6600000000000001,-0.92,-0.7143665403997044
0.6799999999999999,-0.92,-0.7015457014672515
0.7,-0.92,-0.6776610677395724
0.72,-0.92,-0.6430893141585403
0.74,-0.92,-0.5983756579302926
0.76,-0.92,-0.5442252601241921
0.78,-0.92,-0.48149210486152183
0.8,-0.92,-0.411165531475744
0.8200000000000001,-0.92,-0.3343546320402109
0.8400000000000001,-0.92,-0.25227076032362794
0.8600000000000001,-0.92,-0.16620842801749375
0.8800000000000001,-0.92,-0.07752488951342125
0.9000000000000001,-0.92,0.012381262809402136
0.9199999999999999,-0.92,0.10209215522151355
0.94,-0.92,0.19019299335888426
0.96,-0.92,0.27529437437519855
0.98,-0.92,0.3560541986547283
1.0,-0.92,0.4311988355250045

-1.0,-0.9,0.4694590989567536
-0.98,-0.9,0.5370211846168137
-0.96,-0.9,0.5961141253945602
-0.94,-0.9,0.6458059903135168
-0.92,-0.9,0.6853131089794305
-0.9,-0.9,0.7140124305305308
-0.88,-0.9,0.7314513495218131
-0.86,-0.9,0.7373548437832794
-0.84,-0.9,0.7316298116838504
-0.8200000000000001,-0.9,0.7143665403997028
-0.8,-0.9,0.6858372820315657
-0.78,-0.9,0.6464919600264574
-0.76,-0.9,0.5969510736161548
-0.74,-0.9,0.5379959121736392
-0.72,-0.9,0.47055623381296546
-0.7,-0.9,0.3956956025483929
-0.6799999999999999,-0.9,0.31459461525453664
-0.6599999999999999,-0.9,0.22853228294840258
-0.64,-0.9,0.13886586002160356
-0.62,-0.9,0.0470094395278199
-0.6,-0.9,-0.04558834790939574
-0.5800000000000001,-0.9,-0.1374671798669212
-0.56,-0.9,-0.22717807227903264
-0.54,-0.9,-0.31330623078170183
-0.52,-0.9,-0.39449336286487324
-0.5,-0.9,-0.46945909895675353
-0.48,-0.9,-0.5370211846168136
-0.45999999999999996,-0.9,-0.5961141253945603
-0.43999999999999995,-0.9,-0.6458059903135168
-0.42000000000000004,-0.9,-0.6853131089794304
-0.4,-0.9,-0.7140124305305305
-0.38,-0.9,-0.731451349521813
-0.36,-0.9,-0.7373548437832795
-0.33999999999999997,-0.9,-0.7316298116838506
-0.31999999999999995,-0.9,-0.7143665403997029
-0.29999999999999993,-0.9,-0.6858372820315658
-0.28,-0.9,-0.6464919600264576
-0.26,-0.9,-0.5969510736161548
-0.24,-0.9,-0.5379959121736391
-0.21999999999999997,-0.9,-0.4705562338129655
-0.19999999999999996,-0.9,-0.39569560254839303
-0.17999999999999994,-0.9,-0.3145946152545367
-0.16000000000000003,-0.9,-0.22853228294840272
-0.14,-0.9,-0.1388658600216036
-0.12,-0.9,-0.0470094395278198
-0.09999999999999998,-0.9,0.04558834790939571
-0.07999999999999996,-0.9,0.1374671798669213
-0.05999999999999994,-0.9,0.22717807227903278
-0.040000000000000036,-0.9,0.313306230781702
-0.020000000000000018,-0.9,0.39449336286487335
0.0,-0.9,0.4694590989567535
0.020000000000000018,-0.9,0.5370211846168138
0.040000000000000036,-0.9,0.5961141253945604
0.06000000000000005,-0.9,0.645805990313517
0.08000000000000007,-0.9,0.6853131089794305
0.10000000000000009,-0.9,0.7140124305305309
0.1200000000000001,-0.9,0.731451349521813
0.14000000000000012,-0.9,0.7373548437832796
0.15999999999999992,-0.9,0.7316298116838502
0.17999999999999994,-0.9,0.7143665403997028
0.19999999999999996,-0.9,0.6858372820315659
0.21999999999999997,-0.9,0.6464919600264574
0.24,-0.9,0.5969510736161546
0.26,-0.9,0.5379959121736393
0.28,-0.9,0.4705562338129655
0.30000000000000004,-0.9,0.39569560254839287
0.32000000000000006,-0.9,0.3145946152545368
0.3400000000000001,-0.9,0.22853228294840267
0.3600000000000001,-0.9,0.1388658600216036
0.3800000000000001,-0.9,0.04700943952781979
0.40000000000000013,-0.9,-0.04558834790939578
0.41999999999999993,-0.9,-0.13746717986692125
0.43999999999999995,-0.9,-0.22717807227903275
0.45999999999999996,-0.9,-0.3133062307817019
0.48,-0.9,-0.3944933628648733
0.5,-0.9,-0.4694590989567535
0.52,-0.9,-0.5370211846168135
0.54,-0.9,-0.5961141253945602
0.56,-0.9,-0.645805990313517
0.5800000000000001,-0.9,-0.6853131089794304
0.6000000000000001,-0.9,-0.7140124305305309
0.6200000000000001,-0.9,-0.7314513495218127
0.6400000000000001,-0.9,-0.7373548437832795
0.6600000000000001,-0.9,-0.7316298116838503
0.6799999999999999,-0.9,-0.714366540399703
0.7,-0.9,-0.685837282031566
0.72,-0.9,-0.6464919600264576
0.74,-0.9,-0.5969510736161545
0.76,-0.9,-0.5379959121736391
0.78,-0.9,-0.4705562338129655
0.8,-0.9,-0.3956956025483928
0.8200000000000001,-0.9,-0.31459461525453664
0.8400000000000001,-0.9,-0.22853228294840258
0.8600000000000001,-0.9,-0.13886586002160345
0.8800000000000001,-0.9,-0.047009439527819705
0.9000000000000001,-0.9,0.04558834790939584
0.9199999999999999,-0.9,0.13746717986692122
0.94,-0.9,0.22717807227903272
0.96,-0.9,0.3133062307817019
0.98,-0.9,0.39449336286487324
1.0,-0.9,0.4694590989567536

-1.0,-0.88,0.5003157119566823
-0.98,-0.88,0.566030015177961
-0.96,-0.88,0.6228176869299419
-0.94,-0.88,0.6697831517057855
-0.92,-0.88,0.7061857360701679
-0.9,-0.88,0.7314513495218131
-0.88,-0.88,0.7451815382436423
-0.86,-0.88,0.747159768957495
-0.84,-0.88,0.7373548437832772
-0.8200000000000001,-0.88,0.7159213922481641
-0.8,-0.88,0.6831974326865878
-0.78,-0.88,0.6396990414891806
-0.76,-0.88,0.5861122142698044
-0.74,-0.88,0.523282047304928
-0.72,-0.88,0.4521994098605102
-0.7,-0.88,0.3739853175917581
-0.6799999999999999,-0.88,0.2898732534565846
-0.6599999999999999,-0.88,0.20118971495251242
-0.64,-0.88,0.10933329445872889
-0.62,-0.88,0.015752622598786587
-0.6,-0.88,-0.07807647752969916
-0.5800000000000001,-0.88,-0.1706742649669148
-0.56,-0.88,-0.26058041728973863
-0.54,-0.88,-0.3463770607687073
-0.52,-0.88,-0.4267111310837269
-0.5,-0.88,-0.5003157119566822
-0.48,-0.88,-0.566030015177961
-0.45999999999999996,-0.88,-0.6228176869299419
-0.43999999999999995,-0.88,-0.6697831517057854
-0.42000000000000004,-0.88,-0.7061857360701678
-0.4,-0.88,-0.731451349521813
-0.38,-0.88,-0.7451815382436423
-0.36,-0.88,-0.7471597689574951
-0.33999999999999997,-0.88,-0.7373548437832772
-0.31999999999999995,-0.88,-0.7159213922481642
-0.29999999999999993,-0.88,-0.683197432686588
-0.28,-0.88,-0.6396990414891807
-0.26,-0.88,-0.5861122142698043
-0.24,-0.88,-0.523282047304928
-0.21999999999999997,-0.88,-0.4521994098605103
-0.19999999999999996,-0.88,-0.37398531759175835
-0.17999999999999994,-0.88,-0.2898732534565848
-0.16000000000000003,-0.88,-0.20118971495251256
-0.14,-0.88,-0.10933329445872883
-0.12,-0.88,-0.015752622598786587
-0.09999999999999998,-0.88,0.07807647752969928
-0.07999999999999996,-0.88,0.17067426496691493
-0.05999999999999994,-0.88,0.26058041728973874
-0.040000000000000036,-0.88,0.34637706076870745
-0.020000000000000018,-0.88,0.4267111310837269
0.0,-0.88,0.5003157119566825
0.020000000000000018,-0.88,0.5660300151779613
0.040000000000000036,-0.88,0.6228176869299421
0.06000000000000005,-0.88,0.6697831517057855
0.08000000000000007,-0.88,0.706185736070168
0.10000000000000009,-0.88,0.731451349521813
0.1200000000000001,-0.88,0.7451815382436426
0.14000000000000012,-0.88,0.7471597689574949
0.15999999999999992,-0.88,0.7373548437832771
0.17999999999999994,-0.88,0.7159213922481643
0.19999999999999996,-0.88,0.683197432686588
0.21999999999999997,-0.88,0.6396990414891806
0.24,-0.88,0.5861122142698044
0.26,-0.88,0.523282047304928
0.28,-0.88,0.45219940986051016
0.30000000000000004,-0.88,0.37398531759175835
0.32000000000000006,-0.88,0.28987325345658477
0.3400000000000001,-0.88,0.20118971495251253
0.3600000000000001,-0.88,0.1093332944587288
0.3800000000000001,-0.88,0.015752622598786525
0.40000000000000013,-0.88,-0.07807647752969925
0.41999999999999993,-0.88,-0.1706742649669149
0.43999999999999995,-0.88,-0.2605804172897387
0.45999999999999996,-0.88,-0.34637706076870733
0.48,-0.88,-0.4267111310837269
0.5,-0.88,-0.5003157119566821
0.52,-0.88,-0.566030015177961
0.54,-0.88,-0.6228176869299421
0.56,-0.88,-0.6697831517057855
0.5800000000000001,-0.88,-0.7061857360701681
0.6000000000000001,-0.88,-0.7314513495218127
0.6200000000000001,-0.88,-0.7451815382436424
0.6400000000000001,-0.88,-0.747159768957495
0.6600000000000001,-0.88,-0.7373548437832773
0.6799999999999999,-0.88,-0.7159213922481643
0.7,-0.88,-0.683197432686588
0.72,-0.88,-0.6396990414891803
0.74,-0.88,-0.5861122142698044
0.76,-0.88,-0.523282047304928
0.78,-0.88,-0.45219940986051016
0.8,-0.88,-0.37398531759175824
0.8200000000000001,-0.88,-0.28987325345658466
0.8400000000000001,-0.88,-0.20118971495251237
0.8600000000000001,-0.88,-0.10933329445872869
0.8800000000000001,-0.88,-0.01575262259878649
0.9000000000000001,-0.88,0.07807647752969922
0.9199999999999999,-0.88,0.1706742649669149
0.94,-0.88,0.26058041728973874
0.96,-0.88,0.34637706076870733
0.98,-0.88,0.426711131083727
1.0,-0.88,0.5003157119566823

-1.0,-0.86,0.5232820473049343
-0.98,-0.86,0.5861122142698105
-0.96,-0.86,0.6396990414891861
-0.94,-0.86,0.6831974326865928
-0.92,-0.86,0.7159213922481681
-0.9,-0.86,0.7373548437832795
-0.88,-0.86,0.747159768957495
-0.86,-0.86,0.7451815382436396
-0.84,-0.86,0.7314513495218086
-0.8200000000000001,-0.86,0.7061857360701623
-0.8,-0.86,0.6697831517057791
-0.78,-0.86,0.6228176869299351
-0.76,-0.86,0.5660300151779538
-0.74,-0.86,0.5003157119566756
-0.72,-0.86,0.42671113108372066
-0.7,-0.86,0.346377060768702
-0.6799999999999999,-0.86,0.2605804172897342
-0.6599999999999999,-0.86,0.17067426496691115
-0.64,-0.86,0.07807647752969567
-0.62,-0.86,-0.015752622598790043
-0.6,-0.86,-0.10933329445873233
-0.5800000000000001,-0.86,-0.20118971495251647
-0.56,-0.86,-0.2898732534565892
-0.54,-0.86,-0.37398531759176357
-0.52,-0.86,-0.45219940986051615
-0.5,-0.86,-0.5232820473049343
-0.48,-0.86,-0.5861122142698105
-0.45999999999999996,-0.86,-0.6396990414891861
-0.43999999999999995,-0.86,-0.6831974326865926
-0.42000000000000004,-0.86,-0.7159213922481679
-0.4,-0.86,-0.7373548437832794
-0.38,-0.86,-0.7471597689574951
-0.36,-0.86,-0.7451815382436398
-0.33999999999999997,-0.86,-0.7314513495218088
-0.31999999999999995,-0.86,-0.7061857360701624
-0.29999999999999993,-0.86,-0.6697831517057792
-0.28,-0.86,-0.622817686929935
-0.26,-0.86,-0.5660300151779538
-0.24,-0.86,-0.5003157119566756
-0.21999999999999997,-0.86,-0.426711131083721
-0.19999999999999996,-0.86,-0.3463770607687022
-0.17999999999999994,-0.86,-0.26058041728973436
-0.16000000000000003,-0.86,-0.17067426496691113
-0.14,-0.86,-0.07807647752969567
-0.12,-0.86,0.01575262259879014
-0.09999999999999998,-0.86,0.10933329445873245
-0.07999999999999996,-0.86,0.20118971495251659
-0.05999999999999994,-0.86,0.28987325345658943
-0.040000000000000036,-0.86,0.3739853175917637
-0.020000000000000018,-0.86,0.4521994098605163
0.0,-0.86,0.5232820473049345
0.020000000000000018,-0.86,0.5861122142698109
0.040000000000000036,-0.86,0.6396990414891863
0.06000000000000005,-0.86,0.6831974326865928
0.08000000000000007,-0.86,0.715921392248168
0.10000000000000009,-0.86,0.7373548437832796
0.1200000000000001,-0.86,0.7471597689574949
0.14000000000000012,-0.86,0.7451815382436396
0.15999999999999992,-0.86,0.7314513495218089
0.17999999999999994,-0.86,0.7061857360701623
0.19999999999999996,-0.86,0.6697831517057792
0.21999999999999997,-0.86,0.6228176869299351
0.24,-0.86,0.5660300151779538
0.26,-0.86,0.5003157119566756
0.28,-0.86,0.42671113108372094
0.30000000000000004,-0.86,0.34637706076870217
0.32000000000000006,-0.86,0.26058041728973436
0.3400000000000001,-0.86,0.17067426496691104
0.3600000000000001,-0.86,0.0780764775296956
0.3800000000000001,-0.86,-0.01575262259879012
0.40000000000000013,-0.86,-0.10933329445873247