TITLE = "Solution" 
VARIABLES = "x", "y", "sol" 
ZONE STRANDID=1, SOLUTIONTIME= 0.6300000000000003, I= 101, J =101, DATAPACKING=POINT 
-1.0,-1.0,0.33504210076614044
-0.98,-1.0,0.26985723520061555
-0.96,-1.0,0.20041655983107826
-0.94,-1.0,0.12781519558995513
-0.92,-1.0,0.05319810936128158
-0.9,-1.0,-0.022257942831029658
-0.88,-1.0,-0.09736297396864504
-0.86,-1.0,-0.17093253284495336
-0.84,-1.0,-0.24180638356815115
-0.8200000000000001,-1.0,-0.30886680317434717
-0.8,-1.0,-0.37105620878639933
-0.78,-1.0,-0.4273938363276547
-0.76,-1.0,-0.47699120775732085
-0.74,-1.0,-0.5190661428999179
-0.72,-1.0,-0.5529550948938996
-0.7,-1.0,-0.5781236147220418
-0.6799999999999999,-1.0,-0.5941747797917097
-0.6599999999999999,-1.0,-0.6008554536412534
-0.64,-1.0,-0.5980602780532245
-0.62,-1.0,-0.5858333346164037
-0.6,-1.0,-0.5643674495328114
-0.5800000000000001,-1.0,-0.5340011526333144
-0.56,-1.0,-0.4952133385599638
-0.54,-1.0,-0.44861571431141345
-0.52,-1.0,-0.3949431522581342
-0.5,-1.0,-0.3350421007661405
-0.48,-1.0,-0.2698572352006155
-0.45999999999999996,-1.0,-0.20041655983107828
-0.43999999999999995,-1.0,-0.1278151955899552
-0.42000000000000004,-1.0,-0.053198109361281554
-0.4,-1.0,0.022257942831029748
-0.38,-1.0,0.09736297396864511
-0.36,-1.0,0.1709325328449535
-0.33999999999999997,-1.0,0.2418063835681512
-0.31999999999999995,-1.0,0.3088668031743474
-0.29999999999999993,-1.0,0.3710562087863994
-0.28,-1.0,0.4273938363276548
-0.26,-1.0,0.4769912077573209
-0.24,-1.0,0.5190661428999179
-0.21999999999999997,-1.0,0.5529550948938996
-0.19999999999999996,-1.0,0.5781236147220419
-0.17999999999999994,-1.0,0.5941747797917097
-0.16000000000000003,-1.0,0.6008554536412535
-0.14,-1.0,0.5980602780532244
-0.12,-1.0,0.5858333346164036
-0.09999999999999998,-1.0,0.5643674495328114
-0.07999999999999996,-1.0,0.5340011526333142
-0.05999999999999994,-1.0,0.49521333855996363
-0.040000000000000036,-1.0,0.4486157143114135
-0.020000000000000018,-1.0,0.394943152258134
0.0,-1.0,0.3350421007661404
0.020000000000000018,-1.0,0.2698572352006155
0.040000000000000036,-1.0,0.20041655983107826
0.06000000000000005,-1.0,0.12781519558995513
0.08000000000000007,-1.0,0.05319810936128148
0.10000000000000009,-1.0,-0.02225794283102977
0.1200000000000001,-1.0,-0.0973629739686451
0.14000000000000012,-1.0,-0.17093253284495347
0.15999999999999992,-1.0,-0.2418063835681512
0.17999999999999994,-1.0,-0.3088668031743472
0.19999999999999996,-1.0,-0.3710562087863992
0.21999999999999997,-1.0,-0.42739383632765476
0.24,-1.0,-0.47699120775732085
0.26,-1.0,-0.5190661428999179
0.28,-1.0,-0.5529550948938995
0.30000000000000004,-1.0,-0.5781236147220419
0.32000000000000006,-1.0,-0.5941747797917096
0.3400000000000001,-1.0,-0.6008554536412531
0.3600000000000001,-1.0,-0.5980602780532244
0.3800000000000001,-1.0,-0.5858333346164035
0.40000000000000013,-1.0,-0.5643674495328114
0.41999999999999993,-1.0,-0.534001152633314
0.43999999999999995,-1.0,-0.4952133385599638
0.45999999999999996,-1.0,-0.4486157143114133
0.48,-1.0,-0.39494315225813387
0.5,-1.0,-0.3350421007661405
0.52,-1.0,-0.2698572352006155
0.54,-1.0,-0.20041655983107817
0.56,-1.0,-0.1278151955899551
0.5800000000000001,-1.0,-0.05319810936128145
0.6000000000000001,-1.0,0.02225794283102981
0.6200000000000001,-1.0,0.09736297396864513
0.6400000000000001,-1.0,0.17093253284495347
0.6600000000000001,-1.0,0.24180638356815123
0.6799999999999999,-1.0,0.30886680317434734
0.7,-1.0,0.37105620878639933
0.72,-1.0,0.4273938363276548
0.74,-1.0,0.4769912077573208
0.76,-1.0,0.5190661428999181
0.78,-1.0,0.5529550948938994
0.8,-1.0,0.5781236147220419
0.8200000000000001,-1.0,0.5941747797917097
0.8400000000000001,-1.0,0.6008554536412535
0.8600000000000001,-1.0,0.5980602780532246
0.8800000000000001,-1.0,0.5858333346164035
0.9000000000000001,-1.0,0.5643674495328115
0.9199999999999999,-1.0,0.5340011526333139
0.94,-1.0,0.4952133385599636
0.96,-1.0,0.4486157143114132
0.98,-1.0,0.3949431522581341
1.0,-1.0,0.33504210076614044

-1.0,-0.98,0.26985723520061555
-0.98,-0.98,0.2099561837086221
-0.96,-0.98,0.14674399777779884
-0.94,-0.98,0.08121757134140459
-0.92,-0.98,0.014410295287930835
-0.9,-0.98,-0.052624239730526795
-0.88,-0.98,-0.11882885905223689
-0.86,-0.98,-0.18315947628177365
-0.84,-0.98,-0.24460155915617904
-0.8200000000000001,-0.98,-0.30218612932480293
-0.8,-0.98,-0.35500504371673075
-0.78,-0.98,-0.4022253164995123
-0.76,-0.98,-0.44310225576333906
-0.74,-0.98,-0.4769912077573207
-0.72,-0.98,-0.5033577234642334
-0.7,-0.98,-0.5217859871807862
-0.6799999999999999,-0.98,-0.5319853741796575
-0.6599999999999999,-0.98,-0.5337950340350568
-0.64,-0.98,-0.5271864273300266
-0.62,-0.98,-0.5122637757400953
-0.6,-0.98,-0.48926241839519646
-0.5800000000000001,-0.98,-0.45854510044100344
-0.56,-0.98,-0.4205962523312905
-0.54,-0.98,-0.37601435007029044
-0.52,-0.98,-0.3255024768885966
-0.5,-0.98,-0.2698572352006155
-0.48,-0.98,-0.20995618370862212
-0.45999999999999996,-0.98,-0.14674399777779895
-0.43999999999999995,-0.98,-0.08121757134140459
-0.42000000000000004,-0.98,-0.014410295287930756
-0.4,-0.98,0.05262423973052684
-0.38,-0.98,0.11882885905223697
-0.36,-0.98,0.1831594762817737
-0.33999999999999997,-0.98,0.24460155915617918
-0.31999999999999995,-0.98,0.30218612932480304
-0.29999999999999993,-0.98,0.3550050437167309
-0.28,-0.98,0.4022253164995124
-0.26,-0.98,0.443102255763339
-0.24,-0.98,0.4769912077573207
-0.21999999999999997,-0.98,0.5033577234642335
-0.19999999999999996,-0.98,0.5217859871807861
-0.17999999999999994,-0.98,0.5319853741796576
-0.16000000000000003,-0.98,0.5337950340350567
-0.14,-0.98,0.5271864273300266
-0.12,-0.98,0.5122637757400954
-0.09999999999999998,-0.98,0.48926241839519624
-0.07999999999999996,-0.98,0.45854510044100333
-0.05999999999999994,-0.98,0.4205962523312905
-0.040000000000000036,-0.98,0.3760143500702903
-0.020000000000000018,-0.98,0.3255024768885966
0.0,-0.98,0.2698572352006155
0.020000000000000018,-0.98,0.2099561837086221
0.040000000000000036,-0.98,0.14674399777779887
0.06000000000000005,-0.98,0.0812175713414045
0.08000000000000007,-0.98,0.014410295287930738
0.10000000000000009,-0.98,-0.05262423973052682
0.1200000000000001,-0.98,-0.11882885905223699
0.14000000000000012,-0.98,-0.18315947628177373
0.15999999999999992,-0.98,-0.24460155915617912
0.17999999999999994,-0.98,-0.3021861293248029
0.19999999999999996,-0.98,-0.35500504371673086
0.21999999999999997,-0.98,-0.4022253164995123
0.24,-0.98,-0.44310225576333906
0.26,-0.98,-0.4769912077573206
0.28,-0.98,-0.5033577234642335
0.30000000000000004,-0.98,-0.5217859871807861
0.32000000000000006,-0.98,-0.5319853741796574
0.3400000000000001,-0.98,-0.5337950340350569
0.3600000000000001,-0.98,-0.5271864273300264
0.3800000000000001,-0.98,-0.5122637757400954
0.40000000000000013,-0.98,-0.4892624183951963
0.41999999999999993,-0.98,-0.45854510044100344
0.43999999999999995,-0.98,-0.4205962523312904
0.45999999999999996,-0.98,-0.37601435007029016
0.48,-0.98,-0.32550247688859674
0.5,-0.98,-0.2698572352006155
0.52,-0.98,-0.20995618370862199
0.54,-0.98,-0.14674399777779884
0.56,-0.98,-0.08121757134140448
0.5800000000000001,-0.98,-0.0144102952879307
0.6000000000000001,-0.98,0.05262423973052685
0.6200000000000001,-0.98,0.118828859052237
0.6400000000000001,-0.98,0.18315947628177376
0.6600000000000001,-0.98,0.24460155915617918
0.6799999999999999,-0.98,0.30218612932480293
0.7,-0.98,0.3550050437167309
0.72,-0.98,0.40222531649951226
0.74,-0.98,0.4431022557633392
0.76,-0.98,0.4769912077573205
0.78,-0.98,0.5033577234642335
0.8,-0.98,0.5217859871807862
0.8200000000000001,-0.98,0.5319853741796575
0.8400000000000001,-0.98,0.5337950340350569
0.8600000000000001,-0.98,0.5271864273300264
0.8800000000000001,-0.98,0.5122637757400954
0.9000000000000001,-0.98,0.48926241839519613
0.9199999999999999,-0.98,0.4585451004410033
0.94,-0.98,0.4205962523312903
0.96,-0.98,0.37601435007029044
0.98,-0.98,0.3255024768885966
1.0,-0.98,0.26985723520061555

-1.0,-0.96,0.20041655983107823
-0.98,-0.96,0.14674399777779887
-0.96,-0.96,0.09075719521894841
-0.94,-0.96,0.03333909747577458
-0.92,-0.96,-0.02460477775040378
-0.9,-0.96,-0.08216062093327645
-0.88,-0.96,-0.13842074204365543
-0.86,-0.96,-0.19249788536346266
-0.84,-0.96,-0.24353922203842546
-0.8200000000000001,-0.96,-0.2907397996985626
-0.8,-0.96,-0.333355237037916
-0.78,-0.96,-0.37071346315241527
-0.76,-0.96,-0.4022253164995122
-0.74,-0.96,-0.4273938363276545
-0.72,-0.96,-0.44582210004420736
-0.7,-0.96,-0.45721948292184933
-0.6799999999999999,-0.96,-0.46140624142413333
-0.6599999999999999,-0.96,-0.4583163478684307
-0.64,-0.96,-0.44799853172192766
-0.62,-0.96,-0.43061551110881924
-0.6,-0.96,-0.4064414266482872
-0.5800000000000001,-0.96,-0.3758575180931724
-0.56,-0.96,-0.33934611195133
-0.54,-0.96,-0.29748301490847373
-0.52,-0.96,-0.25092843301277185
-0.5,-0.96,-0.20041655983107828
-0.48,-0.96,-0.14674399777779895
-0.45999999999999996,-0.96,-0.09075719521894843
-0.43999999999999995,-0.96,-0.033339097475774515
-0.42000000000000004,-0.96,0.0246047777504038
-0.4,-0.96,0.08216062093327647
-0.38,-0.96,0.1384207420436555
-0.36,-0.96,0.19249788536346277
-0.33999999999999997,-0.96,0.24353922203842554
-0.31999999999999995,-0.96,0.2907397996985628
-0.29999999999999993,-0.96,0.33335523703791603
-0.28,-0.96,0.37071346315241516
-0.26,-0.96,0.4022253164995122
-0.24,-0.96,0.4273938363276546
-0.21999999999999997,-0.96,0.4458221000442073
-0.19999999999999996,-0.96,0.45721948292184944
-0.17999999999999994,-0.96,0.4614062414241333
-0.16000000000000003,-0.96,0.4583163478684307
-0.14,-0.96,0.4479985317219277
-0.12,-0.96,0.4306155111088191
-0.09999999999999998,-0.96,0.4064414266482871
-0.07999999999999996,-0.96,0.3758575180931724
-0.05999999999999994,-0.96,0.33934611195133
-0.040000000000000036,-0.96,0.29748301490847373
-0.020000000000000018,-0.96,0.25092843301277185
0.0,-0.96,0.20041655983107828
0.020000000000000018,-0.96,0.14674399777779887
0.040000000000000036,-0.96,0.09075719521894834
0.06000000000000005,-0.96,0.033339097475774494
0.08000000000000007,-0.96,-0.024604777750403806
0.10000000000000009,-0.96,-0.0821606209332765
0.1200000000000001,-0.96,-0.1384207420436555
0.14000000000000012,-0.96,-0.19249788536346274
0.15999999999999992,-0.96,-0.24353922203842543
0.17999999999999994,-0.96,-0.29073979969856273
0.19999999999999996,-0.96,-0.333355237037916
0.21999999999999997,-0.96,-0.37071346315241516
0.24,-0.96,-0.4022253164995122
0.26,-0.96,-0.4273938363276546
0.28,-0.96,-0.44582210004420725
0.30000000000000004,-0.96,-0.45721948292184916
0.32000000000000006,-0.96,-0.4614062414241334
0.3400000000000001,-0.96,-0.45831634786843056
0.3600000000000001,-0.96,-0.4479985317219276
0.3800000000000001,-0.96,-0.4306155111088191
0.40000000000000013,-0.96,-0.4064414266482872
0.41999999999999993,-0.96,-0.3758575180931723
0.43999999999999995,-0.96,-0.33934611195132985
0.45999999999999996,-0.96,-0.29748301490847384
0.48,-0.96,-0.25092843301277185
0.5,-0.96,-0.20041655983107817
0.52,-0.96,-0.1467439977777989
0.54,-0.96,-0.09075719521894834
0.56,-0.96,-0.03333909747577446
0.5800000000000001,-0.96,0.02460477775040382
0.6000000000000001,-0.96,0.08216062093327652
0.6200000000000001,-0.96,0.13842074204365556
0.6400000000000001,-0.96,0.1924978853634628
0.6600000000000001,-0.96,0.24353922203842548
0.6799999999999999,-0.96,0.2907397996985628
0.7,-0.96,0.333355237037916
0.72,-0.96,0.3707134631524153
0.74,-0.96,0.4022253164995121
0.76,-0.96,0.4273938363276546
0.78,-0.96,0.44582210004420736
0.8,-0.96,0.45721948292184933
0.8200000000000001,-0.96,0.4614062414241335
0.8400000000000001,-0.96,0.45831634786843045
0.8600000000000001,-0.96,0.4479985317219276
0.8800000000000001,-0.96,0.43061551110881907
0.9000000000000001,-0.96,0.40644142664828703
0.9199999999999999,-0.96,0.37585751809317225
0.94,-0.96,0.3393461119513301
0.96,-0.96,0.29748301490847384
0.98,-0.96,0.25092843301277185
1.0,-0.96,0.20041655983107823

-1.0,-0.94,0.12781519558995516
-0.98,-0.94,0.08121757134140459
-0.96,-0.94,0.03333909747577457
-0.94,-0.94,-0.015065153872859924
-0.92,-0.94,-0.0632318187454327
-0.9,-0.94,-0.11040128006353242
-0.88,-0.94,-0.15582964724450224
-0.86,-0.94,-0.19880048780030732
-0.84,-0.94,-0.23863612590584624
-0.8200000000000001,-0.94,-0.2747083297515385
-0.8,-0.94,-0.30644821913424714
-0.78,-0.94,-0.3333552370379159
-0.76,-0.94,-0.35500504371673064
-0.74,-0.94,-0.3710562087863989
-0.72,-0.94,-0.38125559578527063
-0.7,-0.94,-0.38544235428755474
-0.6799999999999999,-0.94,-0.38355045661062254
-0.6599999999999999,-0.94,-0.3756097391110041
-0.64,-0.94,-0.36174543164722317
-0.62,-0.94,-0.3421761826301193
-0.6,-0.94,-0.317210610806795
-0.5800000000000001,-0.94,-0.28724243815861367
-0.56,-0.94,-0.2527442806703557
-0.54,-0.94,-0.21426019489381143
-0.52,-0.94,-0.1723970978509553
-0.5,-0.94,-0.1278151955899552
-0.48,-0.94,-0.08121757134140459
-0.45999999999999996,-0.94,-0.03333909747577452
-0.43999999999999995,-0.94,0.015065153872859938
-0.42000000000000004,-0.94,0.0632318187454327
-0.4,-0.94,0.11040128006353246
-0.38,-0.94,0.15582964724450235
-0.36,-0.94,0.19880048780030737
-0.33999999999999997,-0.94,0.23863612590584635
-0.31999999999999995,-0.94,0.27470832975153864
-0.29999999999999993,-0.94,0.306448219134247
-0.28,-0.94,0.3333552370379159
-0.26,-0.94,0.35500504371673075
-0.24,-0.94,0.3710562087863989
-0.21999999999999997,-0.94,0.38125559578527074
-0.19999999999999996,-0.94,0.3854423542875547
-0.17999999999999994,-0.94,0.3835504566106225
-0.16000000000000003,-0.94,0.37560973911100415
-0.14,-0.94,0.3617454316472231
-0.12,-0.94,0.3421761826301191
-0.09999999999999998,-0.94,0.317210610806795
-0.07999999999999996,-0.94,0.28724243815861367
-0.05999999999999994,-0.94,0.2527442806703557
-0.040000000000000036,-0.94,0.21426019489381143
-0.020000000000000018,-0.94,0.1723970978509553
0.0,-0.94,0.1278151955899552
0.020000000000000018,-0.94,0.08121757134140453
0.040000000000000036,-0.94,0.03333909747577451
0.06000000000000005,-0.94,-0.015065153872859952
0.08000000000000007,-0.94,-0.06323181874543275
0.10000000000000009,-0.94,-0.11040128006353249
0.1200000000000001,-0.94,-0.15582964724450235
0.14000000000000012,-0.94,-0.1988004878003073
0.15999999999999992,-0.94,-0.23863612590584632
0.17999999999999994,-0.94,-0.27470832975153847
0.19999999999999996,-0.94,-0.306448219134247
0.21999999999999997,-0.94,-0.3333552370379159
0.24,-0.94,-0.3550050437167308
0.26,-0.94,-0.3710562087863988
0.28,-0.94,-0.38125559578527046
0.30000000000000004,-0.94,-0.3854423542875548
0.32000000000000006,-0.94,-0.3835504566106225
0.3400000000000001,-0.94,-0.3756097391110041
0.3600000000000001,-0.94,-0.3617454316472231
0.3800000000000001,-0.94,-0.34217618263011923
0.40000000000000013,-0.94,-0.317210610806795
0.41999999999999993,-0.94,-0.2872424381586136
0.43999999999999995,-0.94,-0.25274428067035576
0.45999999999999996,-0.94,-0.21426019489381143
0.48,-0.94,-0.17239709785095522
0.5,-0.94,-0.1278151955899552
0.52,-0.94,-0.08121757134140452
0.54,-0.94,-0.03333909747577448
0.56,-0.94,0.015065153872859966
0.5800000000000001,-0.94,0.06323181874543275
0.6000000000000001,-0.94,0.11040128006353252
0.6200000000000001,-0.94,0.1558296472445024
0.6400000000000001,-0.94,0.19880048780030737
0.6600000000000001,-0.94,0.23863612590584635
0.6799999999999999,-0.94,0.27470832975153847
0.7,-0.94,0.30644821913424714
0.72,-0.94,0.3333552370379158
0.74,-0.94,0.3550050437167307
0.76,-0.94,0.371056208786399
0.78,-0.94,0.3812555957852706
0.8,-0.94,0.38544235428755486
0.8200000000000001,-0.94,0.38355045661062237
0.8400000000000001,-0.94,0.37560973911100404
0.8600000000000001,-0.94,0.36174543164722306
0.8800000000000001,-0.94,0.34217618263011906
0.9000000000000001,-0.94,0.3172106108067949
0.9199999999999999,-0.94,0.2872424381586137
0.94,-0.94,0.25274428067035576
0.96,-0.94,0.2142601948938114
0.98,-0.94,0.17239709785095525
1.0,-0.94,0.12781519558995516

-1.0,-0.92,0.053198109361281554
-0.98,-0.92,0.014410295287930808
-0.96,-0.92,-0.024604777750403765
-0.94,-0.92,-0.06323181874543267
-0.92,-0.92,-0.10086165618598858
-0.9,-0.92,-0.13690084505665856
-0.88,-0.92,-0.17078102582018434
-0.86,-0.92,-0.20196788778688587
-0.84,-0.92,-0.22996959551342033
-0.8200000000000001,-0.92,-0.2543445453415307
-0.8,-0.92,-0.2747083297515384
-0.78,-0.92,-0.2907397996985625
-0.76,-0.92,-0.30218612932480254
-0.74,-0.92,-0.3088668031743468
-0.72,-0.92,-0.3106764630297464
-0.7,-0.92,-0.3075865694740439
-0.6799999999999999,-0.92,-0.29964585197442545
-0.6599999999999999,-0.92,-0.286979540389415
-0.64,-0.92,-0.26978739001919566
-0.62,-0.92,-0.24834053134519884
-0.6,-0.92,-0.22297719414044562
-0.5800000000000001,-0.92,-0.19409737338397826
-0.56,-0.92,-0.16215652110109505
-0.54,-0.92,-0.1276583636128371
-0.52,-0.92,-0.09114695747099472
-0.5,-0.92,-0.05319810936128158
-0.48,-0.92,-0.014410295287930776
-0.45999999999999996,-0.92,0.024604777750403786
-0.43999999999999995,-0.92,0.0632318187454327
-0.42000000000000004,-0.92,0.10086165618598861
-0.4,-0.92,0.13690084505665867
-0.38,-0.92,0.17078102582018442
-0.36,-0.92,0.20196788778688596
-0.33999999999999997,-0.92,0.22996959551342044
-0.31999999999999995,-0.92,0.2543445453415306
-0.29999999999999993,-0.92,0.2747083297515384
-0.28,-0.92,0.2907397996985626
-0.26,-0.92,0.3021861293248026
-0.24,-0.92,0.3088668031743469
-0.21999999999999997,-0.92,0.31067646302974644
-0.19999999999999996,-0.92,0.3075865694740438
-0.17999999999999994,-0.92,0.29964585197442545
-0.16000000000000003,-0.92,0.2869795403894149
-0.14,-0.92,0.2697873900191955
-0.12,-0.92,0.24834053134519884
-0.09999999999999998,-0.92,0.22297719414044562
-0.07999999999999996,-0.92,0.1940973733839783
-0.05999999999999994,-0.92,0.162156521101095
-0.040000000000000036,-0.92,0.12765836361283708
-0.020000000000000018,-0.92,0.0911469574709947
0.0,-0.92,0.05319810936128152
0.020000000000000018,-0.92,0.014410295287930763
0.040000000000000036,-0.92,-0.024604777750403775
0.06000000000000005,-0.92,-0.06323181874543274
0.08000000000000007,-0.92,-0.10086165618598862
0.10000000000000009,-0.92,-0.13690084505665867
0.1200000000000001,-0.92,-0.1707810258201844
0.14000000000000012,-0.92,-0.20196788778688593
0.15999999999999992,-0.92,-0.2299695955134203
0.17999999999999994,-0.92,-0.25434454534153067
0.19999999999999996,-0.92,-0.2747083297515384
0.21999999999999997,-0.92,-0.2907397996985626
0.24,-0.92,-0.3021861293248025
0.26,-0.92,-0.3088668031743466
0.28,-0.92,-0.3106764630297465
0.30000000000000004,-0.92,-0.3075865694740439
0.32000000000000006,-0.92,-0.29964585197442545
0.3400000000000001,-0.92,-0.2869795403894149
0.3600000000000001,-0.92,-0.2697873900191956
0.3800000000000001,-0.92,-0.24834053134519884
0.40000000000000013,-0.92,-0.2229771941404456
0.41999999999999993,-0.92,-0.1940973733839783
0.43999999999999995,-0.92,-0.16215652110109502
0.45999999999999996,-0.92,-0.12765836361283706
0.48,-0.92,-0.09114695747099469
0.5,-0.92,-0.05319810936128151
0.52,-0.92,-0.014410295287930773
0.54,-0.92,0.0246047777504038
0.56,-0.92,0.06323181874543274
0.5800000000000001,-0.92,0.10086165618598865
0.6000000000000001,-0.92,0.13690084505665867
0.6200000000000001,-0.92,0.1707810258201844
0.6400000000000001,-0.92,0.20196788778688596
0.6600000000000001,-0.92,0.2299695955134203
0.6799999999999999,-0.92,0.25434454534153067
0.7,-0.92,0.27470832975153836
0.72,-0.92,0.2907397996985625
0.74,-0.92,0.3021861293248026
0.76,-0.92,0.3088668031743467
0.78,-0.92,0.3106764630297465
0.8,-0.92,0.3075865694740437
0.8200000000000001,-0.92,0.29964585197442534
0.8400000000000001,-0.92,0.28697954038941487
0.8600000000000001,-0.92,0.2697873900191955
0.8800000000000001,-0.92,0.2483405313451988
0.9000000000000001,-0.92,0.22297719414044567
0.9199999999999999,-0.92,0.1940973733839783
0.94,-0.92,0.16215652110109496
0.96,-0.92,0.12765836361283706
0.98,-0.92,0.09114695747099469
1.0,-0.92,0.053198109361281554

-1.0,-0.9,-0.0222579428310297
-0.98,-0.9,-0.05262423973052679
-0.96,-0.9,-0.08216062093327639
-0.94,-0.9,-0.11040128006353242
-0.92,-0.9,-0.13690084505665856
-0.9,-0.9,-0.1612414019426405
-0.88,-0.9,-0.1830390855990422
-0.86,-0.9,-0.20195013353329738
-0.84,-0.9,-0.21767630722257023
-0.8200000000000001,-0.9,-0.22996959551342017
-0.8,-0.9,-0.23863612590584604
-0.78,-0.9,-0.243539222038425
-0.76,-0.9,-0.2446015591561786
-0.74,-0.9,-0.24180638356815018
-0.72,-0.9,-0.23519777686312027
-0.7,-0.9,-0.2248799607166172
-0.6799999999999999,-0.9,-0.21101565325283622
-0.6599999999999999,-0.9,-0.19382350288261696
-0.64,-0.9,-0.17357464008739046
-0.62,-0.9,-0.1505884015295218
-0.6,-0.9,-0.12522729392238197
-0.5800000000000001,-0.9,-0.09789127708292689
-0.56,-0.9,-0.06901145632645954
-0.54,-0.9,-0.039043283678278196
-0.52,-0.9,-0.008459375123163311
-0.5,-0.9,0.022257942831029727
-0.48,-0.9,0.052624239730526795
-0.45999999999999996,-0.9,0.08216062093327642
-0.43999999999999995,-0.9,0.11040128006353245
-0.42000000000000004,-0.9,0.13690084505665862
-0.4,-0.9,0.16124140194264058
-0.38,-0.9,0.1830390855990423
-0.36,-0.9,0.2019501335332975
-0.33999999999999997,-0.9,0.21767630722257017
-0.31999999999999995,-0.9,0.2299695955134202
-0.29999999999999993,-0.9,0.23863612590584612
-0.28,-0.9,0.243539222038425
-0.26,-0.9,0.24460155915617868
-0.24,-0.9,0.24180638356815023
-0.21999999999999997,-0.9,0.23519777686312018
-0.19999999999999996,-0.9,0.22487996071661717
-0.17999999999999994,-0.9,0.21101565325283622
-0.16000000000000003,-0.9,0.19382350288261685
-0.14,-0.9,0.17357464008739046
-0.12,-0.9,0.15058840152952183
-0.09999999999999998,-0.9,0.125227293922382
-0.07999999999999996,-0.9,0.09789127708292683
-0.05999999999999994,-0.9,0.06901145632645952
-0.040000000000000036,-0.9,0.03904328367827818
-0.020000000000000018,-0.9,0.008459375123163249
0.0,-0.9,-0.022257942831029734
0.020000000000000018,-0.9,-0.052624239730526774
0.040000000000000036,-0.9,-0.08216062093327647
0.06000000000000005,-0.9,-0.11040128006353242
0.08000000000000007,-0.9,-0.13690084505665864
0.10000000000000009,-0.9,-0.16124140194264058
0.1200000000000001,-0.9,-0.18303908559904228
0.14000000000000012,-0.9,-0.20195013353329735
0.15999999999999992,-0.9,-0.2176763072225702
0.17999999999999994,-0.9,-0.22996959551342014
0.19999999999999996,-0.9,-0.23863612590584612
0.21999999999999997,-0.9,-0.24353922203842499
0.24,-0.9,-0.24460155915617846
0.26,-0.9,-0.24180638356815026
0.28,-0.9,-0.23519777686312024
0.30000000000000004,-0.9,-0.22487996071661717
0.32000000000000006,-0.9,-0.21101565325283622
0.3400000000000001,-0.9,-0.1938235028826169
0.3600000000000001,-0.9,-0.17357464008739049
0.3800000000000001,-0.9,-0.15058840152952183
0.40000000000000013,-0.9,-0.12522729392238205
0.41999999999999993,-0.9,-0.09789127708292686
0.43999999999999995,-0.9,-0.06901145632645952
0.45999999999999996,-0.9,-0.03904328367827818
0.48,-0.9,-0.008459375123163242
0.5,-0.9,0.022257942831029706
0.52,-0.9,0.052624239730526816
0.54,-0.9,0.08216062093327647
0.56,-0.9,0.11040128006353248
0.5800000000000001,-0.9,0.13690084505665864
0.6000000000000001,-0.9,0.16124140194264056
0.6200000000000001,-0.9,0.1830390855990423
0.6400000000000001,-0.9,0.20195013353329735
0.6600000000000001,-0.9,0.2176763072225702
0.6799999999999999,-0.9,0.22996959551342017
0.7,-0.9,0.23863612590584607
0.72,-0.9,0.243539222038425
0.74,-0.9,0.24460155915617854
0.76,-0.9,0.2418063835681503
0.78,-0.9,0.23519777686312013
0.8,-0.9,0.22487996071661712
0.8200000000000001,-0.9,0.21101565325283625
0.8400000000000001,-0.9,0.1938235028826168
0.8600000000000001,-0.9,0.17357464008739043
0.8800000000000001,-0.9,0.15058840152952188
0.9000000000000001,-0.9,0.12522729392238202
0.9199999999999999,-0.9,0.09789127708292683
0.94,-0.9,0.0690114563264595
0.96,-0.9,0.03904328367827817
0.98,-0.9,0.008459375123163283
1.0,-0.9,-0.0222579428310297

-1.0,-0.88,-0.09736297396864504
-0.98,-0.88,-0.11882885905223683
-0.96,-0.88,-0.13842074204365543
-0.94,-0.88,-0.15582964724450224
-0.92,-0.88,-0.1707810258201843
-0.9,-0.88,-0.1830390855990422
-0.88,-0.88,-0.19241050965575354
-0.86,-0.88,-0.19874750503472646
-0.84,-0.88,-0.2019501335332971
-0.8200000000000001,-0.88,-0.20196788778688554
-0.8,-0.88,-0.1988004878003068
-0.78,-0.88,-0.19249788536346213
-0.76,-0.88,-0.18315947628177276
-0.74,-0.88,-0.17093253284495225
-0.72,-0.88,-0.15600988125502102
-0.7,-0.88,-0.1386268606419125
-0.6799999999999999,-0.88,-0.11905761162480862
-0.6599999999999999,-0.88,-0.0976107529508116
-0.64,-0.88,-0.07462451439294292
-0.62,-0.88,-0.05046140266457347
-0.6,-0.88,-0.025502484472002956
-0.5800000000000001,-0.88,-0.00014137686486306866
-0.56,-0.88,0.025221960339890125
-0.54,-0.88,0.05018753216321433
-0.52,-0.88,0.07436161662374627
-0.5,-0.88,0.09736297396864507
-0.48,-0.88,0.11882885905223692
-0.45999999999999996,-0.88,0.1384207420436554
-0.43999999999999995,-0.88,0.1558296472445023
-0.42000000000000004,-0.88,0.17078102582018434
-0.4,-0.88,0.18303908559904228
-0.38,-0.88,0.19241050965575368
-0.36,-0.88,0.1987475050347264
-0.33999999999999997,-0.88,0.20195013353329716
-0.31999999999999995,-0.88,0.20196788778688562
-0.29999999999999993,-0.88,0.1988004878003068
-0.28,-0.88,0.1924978853634622
-0.26,-0.88,0.18315947628177282
-0.24,-0.88,0.17093253284495216
-0.21999999999999997,-0.88,0.15600988125502102
-0.19999999999999996,-0.88,0.13862686064191254
-0.17999999999999994,-0.88,0.11905761162480849
-0.16000000000000003,-0.88,0.09761075295081159
-0.14,-0.88,0.07462451439294293
-0.12,-0.88,0.050461402664573496
-0.09999999999999998,-0.88,0.025502484472002925
-0.07999999999999996,-0.88,0.00014137686486306866
-0.05999999999999994,-0.88,-0.02522196033989011
-0.040000000000000036,-0.88,-0.0501875321632144
-0.020000000000000018,-0.88,-0.0743616166237463
0.0,-0.88,-0.09736297396864504
0.020000000000000018,-0.88,-0.11882885905223692
0.040000000000000036,-0.88,-0.1384207420436554
0.06000000000000005,-0.88,-0.15582964724450238
0.08000000000000007,-0.88,-0.17078102582018437
0.10000000000000009,-0.88,-0.18303908559904228
0.1200000000000001,-0.88,-0.19241050965575357
0.14000000000000012,-0.88,-0.1987475050347264
0.15999999999999992,-0.88,-0.20195013353329708
0.17999999999999994,-0.88,-0.20196788778688557
0.19999999999999996,-0.88,-0.19880048780030676
0.21999999999999997,-0.88,-0.19249788536346207
0.24,-0.88,-0.1831594762817728
0.26,-0.88,-0.17093253284495225
0.28,-0.88,-0.15600988125502102
0.30000000000000004,-0.88,-0.13862686064191254
0.32000000000000006,-0.88,-0.11905761162480855
0.3400000000000001,-0.88,-0.09761075295081165
0.3600000000000001,-0.88,-0.0746245143929429
0.3800000000000001,-0.88,-0.050461402664573565
0.40000000000000013,-0.88,-0.025502484472002943
0.41999999999999993,-0.88,-0.00014137686486309642
0.43999999999999995,-0.88,0.02522196033989009
0.45999999999999996,-0.88,0.05018753216321441
0.48,-0.88,0.07436161662374621
0.5,-0.88,0.0973629739686451
0.52,-0.88,0.11882885905223692
0.54,-0.88,0.13842074204365545
0.56,-0.88,0.15582964724450232
0.5800000000000001,-0.88,0.17078102582018434
0.6000000000000001,-0.88,0.18303908559904228
0.6200000000000001,-0.88,0.19241050965575357
0.6400000000000001,-0.88,0.19874750503472638
0.6600000000000001,-0.88,0.2019501335332971
0.6799999999999999,-0.88,0.20196788778688554
0.7,-0.88,0.19880048780030674
0.72,-0.88,0.1924978853634621
0.74,-0.88,0.18315947628177282
0.76,-0.88,0.17093253284495213
0.78,-0.88,0.156009881255021
0.8,-0.88,0.13862686064191254
0.8200000000000001,-0.88,0.11905761162480849
0.8400000000000001,-0.88,0.09761075295081159
0.8600000000000001,-0.88,0.07462451439294299
0.8800000000000001,-0.88,0.050461402664573524
0.9000000000000001,-0.88,0.02550248447200291
0.9199999999999999,-0.88,0.00014137686486304785
0.94,-0.88,-0.025221960339890097
0.96,-0.88,-0.05018753216321437
0.98,-0.88,-0.07436161662374624
1.0,-0.88,-0.09736297396864504

-1.0,-0.86,-0.1709325328449533
-0.98,-0.86,-0.18315947628177356
-0.96,-0.86,-0.19249788536346263
-0.94,-0.86,-0.19880048780030724
-0.92,-0.86,-0.20196788778688585
-0.9,-0.86,-0.20195013353329735
-0.88,-0.86,-0.19874750503472646
-0.86,-0.86,-0.19241050965575326
-0.84,-0.86,-0.18303908559904175
-0.8200000000000001,-0.86,-0.17078102582018378
-0.8,-0.86,-0.15582964724450168
-0.78,-0.86,-0.13842074204365462
-0.76,-0.86,-0.11882885905223589
-0.74,-0.86,-0.09736297396864363
-0.72,-0.86,-0.07436161662374449
-0.7,-0.86,-0.05018753216321237
-0.6799999999999999,-0.86,-0.02522196033988779
-0.6599999999999999,-0.86,0.00014137686486558054
-0.64,-0.86,0.025502484472005496
-0.62,-0.86,0.050461402664576056
-0.6,-0.86,0.07462451439294557
-0.5800000000000001,-0.86,0.0976107529508142
-0.56,-0.86,0.11905761162481088
-0.54,-0.86,0.1386268606419146
-0.52,-0.86,0.15600988125502271
-0.5,-0.86,0.1709325328449534
-0.48,-0.86,0.18315947628177356
-0.45999999999999996,-0.86,0.19249788536346263
-0.43999999999999995,-0.86,0.19880048780030724
-0.42000000000000004,-0.86,0.20196788778688593
-0.4,-0.86,0.2019501335332975
-0.38,-0.86,0.1987475050347264
-0.36,-0.86,0.19241050965575332
-0.33999999999999997,-0.86,0.1830390855990419
-0.31999999999999995,-0.86,0.1707810258201838
-0.29999999999999993,-0.86,0.15582964724450177
-0.28,-0.86,0.13842074204365462
-0.26,-0.86,0.11882885905223581
-0.24,-0.86,0.0973629739686436
-0.21999999999999997,-0.86,0.07436161662374449
-0.19999999999999996,-0.86,0.05018753216321226
-0.17999999999999994,-0.86,0.025221960339887755
-0.16000000000000003,-0.86,-0.00014137686486556666
-0.14,-0.86,-0.02550248447200549
-0.12,-0.86,-0.05046140266457607
-0.09999999999999998,-0.86,-0.07462451439294557
-0.07999999999999996,-0.86,-0.0976107529508142
-0.05999999999999994,-0.86,-0.11905761162481099
-0.040000000000000036,-0.86,-0.13862686064191465
-0.020000000000000018,-0.86,-0.1560098812550227
0.0,-0.86,-0.17093253284495336
0.020000000000000018,-0.86,-0.18315947628177354
0.040000000000000036,-0.86,-0.19249788536346277
0.06000000000000005,-0.86,-0.19880048780030724
0.08000000000000007,-0.86,-0.20196788778688596
0.10000000000000009,-0.86,-0.2019501335332974
0.1200000000000001,-0.86,-0.19874750503472638
0.14000000000000012,-0.86,-0.19241050965575326
0.15999999999999992,-0.86,-0.18303908559904178
0.17999999999999994,-0.86,-0.17078102582018376
0.19999999999999996,-0.86,-0.15582964724450163
0.21999999999999997,-0.86,-0.1384207420436546
0.24,-0.86,-0.11882885905223586
0.26,-0.86,-0.09736297396864363
0.28,-0.86,-0.0743616166237445