TITLE = "Solution" 
VARIABLES = "x", "y", "sol" 
ZONE STRANDID=1, SOLUTIONTIME= 0.8700000000000006, I= 101, J =101, DATAPACKING=POINT 
-1.0,-1.0,0.28249947912188805
-0.98,-1.0,0.3428148448792671
-0.96,-1.0,0.3977238157452386
-0.94,-1.0,0.44636044444821665
-0.92,-1.0,0.4879577022994416
-0.9,-1.0,0.5218595756936015
-0.88,-1.0,0.5475314118352733
-0.86,-1.0,0.5645683505328913
-0.84,-1.0,0.5727017090858204
-0.8200000000000001,-1.0,0.5718032195710478
-0.8,-1.0,0.5618870517049542
-0.78,-1.0,0.5431095893784187
-0.76,-1.0,0.5157669643894429
-0.74,-1.0,0.48029038626779563
-0.72,-1.0,0.43723934184313556
-0.7,-1.0,0.3872927718034868
-0.6799999999999999,-1.0,0.3312383633950093
-0.6599999999999999,-1.0,0.2699601281235857
-0.64,-1.0,0.2044244603652895
-0.62,-1.0,0.13566489674977936
-0.6,-1.0,0.06476581667024414
-0.5800000000000001,-1.0,-0.007154659027404413
-0.56,-1.0,-0.07896230147820477
-0.54,-1.0,-0.14952466126490138
-0.52,-1.0,-0.21772892782174766
-0.5,-1.0,-0.28249947912188816
-0.48,-1.0,-0.3428148448792672
-0.45999999999999996,-1.0,-0.3977238157452387
-0.43999999999999995,-1.0,-0.44636044444821676
-0.42000000000000004,-1.0,-0.4879577022994415
-0.4,-1.0,-0.5218595756936015
-0.38,-1.0,-0.5475314118352734
-0.36,-1.0,-0.5645683505328914
-0.33999999999999997,-1.0,-0.5727017090858204
-0.31999999999999995,-1.0,-0.5718032195710478
-0.29999999999999993,-1.0,-0.5618870517049545
-0.28,-1.0,-0.5431095893784188
-0.26,-1.0,-0.515766964389443
-0.24,-1.0,-0.48029038626779563
-0.21999999999999997,-1.0,-0.43723934184313545
-0.19999999999999996,-1.0,-0.3872927718034869
-0.17999999999999994,-1.0,-0.3312383633950094
-0.16000000000000003,-1.0,-0.2699601281235856
-0.14,-1.0,-0.20442446036528938
-0.12,-1.0,-0.13566489674977936
-0.09999999999999998,-1.0,-0.06476581667024409
-0.07999999999999996,-1.0,0.0071546590274044475
-0.05999999999999994,-1.0,0.07896230147820485
-0.040000000000000036,-1.0,0.14952466126490152
-0.020000000000000018,-1.0,0.21772892782174763
0.0,-1.0,0.28249947912188816
0.020000000000000018,-1.0,0.34281484487926733
0.040000000000000036,-1.0,0.39772381574523885
0.06000000000000005,-1.0,0.4463604444482169
0.08000000000000007,-1.0,0.4879577022994417
0.10000000000000009,-1.0,0.5218595756936014
0.1200000000000001,-1.0,0.5475314118352735
0.14000000000000012,-1.0,0.5645683505328914
0.15999999999999992,-1.0,0.5727017090858202
0.17999999999999994,-1.0,0.5718032195710482
0.19999999999999996,-1.0,0.5618870517049543
0.21999999999999997,-1.0,0.5431095893784187
0.24,-1.0,0.5157669643894429
0.26,-1.0,0.4802903862677956
0.28,-1.0,0.4372393418431356
0.30000000000000004,-1.0,0.3872927718034869
0.32000000000000006,-1.0,0.33123836339500917
0.3400000000000001,-1.0,0.2699601281235856
0.3600000000000001,-1.0,0.20442446036528933
0.3800000000000001,-1.0,0.13566489674977925
0.40000000000000013,-1.0,0.06476581667024414
0.41999999999999993,-1.0,-0.007154659027404472
0.43999999999999995,-1.0,-0.07896230147820482
0.45999999999999996,-1.0,-0.14952466126490147
0.48,-1.0,-0.2177289278217477
0.5,-1.0,-0.28249947912188805
0.52,-1.0,-0.3428148448792673
0.54,-1.0,-0.39772381574523874
0.56,-1.0,-0.44636044444821665
0.5800000000000001,-1.0,-0.48795770229944124
0.6000000000000001,-1.0,-0.5218595756936014
0.6200000000000001,-1.0,-0.5475314118352733
0.6400000000000001,-1.0,-0.5645683505328916
0.6600000000000001,-1.0,-0.5727017090858204
0.6799999999999999,-1.0,-0.5718032195710481
0.7,-1.0,-0.5618870517049542
0.72,-1.0,-0.5431095893784188
0.74,-1.0,-0.5157669643894427
0.76,-1.0,-0.4802903862677958
0.78,-1.0,-0.4372393418431356
0.8,-1.0,-0.3872927718034869
0.8200000000000001,-1.0,-0.3312383633950092
0.8400000000000001,-1.0,-0.2699601281235855
0.8600000000000001,-1.0,-0.20442446036528933
0.8800000000000001,-1.0,-0.13566489674977927
0.9000000000000001,-1.0,-0.06476581667024409
0.9199999999999999,-1.0,0.007154659027404538
0.94,-1.0,0.07896230147820493
0.96,-1.0,0.14952466126490147
0.98,-1.0,0.21772892782174783
1.0,-1.0,0.28249947912188805

-1.0,-0.98,0.3428148448792671
-0.98,-0.98,0.4056127165447056
-0.96,-0.98,0.4620138333689421
-0.94,-0.98,0.5111287160472646
-0.92,-0.98,0.5521827935400259
-0.9,-0.98,0.584528618520649
-0.88,-0.98,0.6076560780067296
-0.86,-0.98,0.6212004381464984
-0.84,-0.98,0.6249480962895418
-0.8200000000000001,-0.98,0.6188399496282031
-0.8,-0.98,0.6029723272841607
-0.78,-0.98,0.5775954711406383
-0.76,-0.98,0.5431095893784182
-0.74,-0.98,0.5000585449537582
-0.72,-0.98,0.4491212785546821
-0.7,-0.98,0.391101101300751
-0.6799999999999999,-0.98,0.326913026046834
-0.6599999999999999,-0.98,0.25756933708378277
-0.64,-0.98,0.1841636258104565
-0.62,-0.98,0.10785354414408183
-0.6,-0.98,0.029842547657970685
-0.5800000000000001,-0.98,-0.04863908363178064
-0.56,-0.98,-0.1263536475170787
-0.54,-0.98,-0.20207553890102226
-0.52,-0.98,-0.27461057832242114
-0.5,-0.98,-0.34281484487926717
-0.48,-0.98,-0.4056127165447057
-0.45999999999999996,-0.98,-0.4620138333689422
-0.43999999999999995,-0.98,-0.5111287160472645
-0.42000000000000004,-0.98,-0.5521827935400259
-0.4,-0.98,-0.5845286185206489
-0.38,-0.98,-0.6076560780067296
-0.36,-0.98,-0.6212004381464984
-0.33999999999999997,-0.98,-0.6249480962895417
-0.31999999999999995,-0.98,-0.6188399496282032
-0.29999999999999993,-0.98,-0.6029723272841607
-0.28,-0.98,-0.5775954711406385
-0.26,-0.98,-0.5431095893784182
-0.24,-0.98,-0.5000585449537581
-0.21999999999999997,-0.98,-0.4491212785546822
-0.19999999999999996,-0.98,-0.3911011013007511
-0.17999999999999994,-0.98,-0.32691302604683387
-0.16000000000000003,-0.98,-0.2575693370837826
-0.14,-0.98,-0.1841636258104565
-0.12,-0.98,-0.10785354414408181
-0.09999999999999998,-0.98,-0.029842547657970665
-0.07999999999999996,-0.98,0.04863908363178074
-0.05999999999999994,-0.98,0.1263536475170788
-0.040000000000000036,-0.98,0.20207553890102226
-0.020000000000000018,-0.98,0.2746105783224212
0.0,-0.98,0.3428148448792673
0.020000000000000018,-0.98,0.4056127165447058
0.040000000000000036,-0.98,0.4620138333689423
0.06000000000000005,-0.98,0.5111287160472646
0.08000000000000007,-0.98,0.5521827935400259
0.10000000000000009,-0.98,0.584528618520649
0.1200000000000001,-0.98,0.6076560780067296
0.14000000000000012,-0.98,0.6212004381464981
0.15999999999999992,-0.98,0.6249480962895421
0.17999999999999994,-0.98,0.6188399496282032
0.19999999999999996,-0.98,0.6029723272841607
0.21999999999999997,-0.98,0.5775954711406383
0.24,-0.98,0.5431095893784184
0.26,-0.98,0.5000585449537582
0.28,-0.98,0.4491212785546821
0.30000000000000004,-0.98,0.3911011013007508
0.32000000000000006,-0.98,0.3269130260468339
0.3400000000000001,-0.98,0.2575693370837826
0.3600000000000001,-0.98,0.1841636258104564
0.3800000000000001,-0.98,0.1078535441440819
0.40000000000000013,-0.98,0.029842547657970626
0.41999999999999993,-0.98,-0.048639083631780725
0.43999999999999995,-0.98,-0.12635364751707878
0.45999999999999996,-0.98,-0.20207553890102228
0.48,-0.98,-0.27461057832242103
0.5,-0.98,-0.3428148448792672
0.52,-0.98,-0.40561271654470565
0.54,-0.98,-0.4620138333689421
0.56,-0.98,-0.5111287160472642
0.5800000000000001,-0.98,-0.5521827935400256
0.6000000000000001,-0.98,-0.5845286185206487
0.6200000000000001,-0.98,-0.6076560780067298
0.6400000000000001,-0.98,-0.6212004381464982
0.6600000000000001,-0.98,-0.624948096289542
0.6799999999999999,-0.98,-0.618839949628203
0.7,-0.98,-0.6029723272841606
0.72,-0.98,-0.577595471140638
0.74,-0.98,-0.5431095893784185
0.76,-0.98,-0.5000585449537585
0.78,-0.98,-0.4491212785546822
0.8,-0.98,-0.3911011013007509
0.8200000000000001,-0.98,-0.3269130260468337
0.8400000000000001,-0.98,-0.2575693370837826
0.8600000000000001,-0.98,-0.18416362581045642
0.8800000000000001,-0.98,-0.10785354414408178
0.9000000000000001,-0.98,-0.02984254765797056
0.9199999999999999,-0.98,0.04863908363178081
0.94,-0.98,0.12635364751707878
0.96,-0.98,0.2020755389010224
0.98,-0.98,0.27461057832242103
1.0,-0.98,0.3428148448792671

-1.0,-0.96,0.39772381574523863
-0.98,-0.96,0.4620138333689421
-0.96,-0.96,0.5190176168467315
-0.94,-0.96,0.5678361824607514
-0.92,-0.96,0.6076996322684718
-0.9,-0.96,0.637979295853154
-0.88,-0.96,0.6581976448318739
-0.86,-0.96,0.6680358237633803
-0.84,-0.96,0.6673386786888807
-0.8200000000000001,-0.96,0.6561172040026543
-0.8,-0.96,0.6345483690638868
-0.78,-0.96,0.60297232728416
-0.76,-0.96,0.5618870517049535
-0.74,-0.96,0.5119404816653046
-0.72,-0.96,0.45392030441137354
-0.7,-0.96,0.38874153279802903
-0.6799999999999999,-0.96,0.31743207498952425
-0.6599999999999999,-0.96,0.2411165237337048
-0.64,-0.96,0.16099842086257515
-0.62,-0.96,0.0783412767186479
-0.6,-0.96,-0.005551356157942864
-0.5800000000000001,-0.96,-0.0893564408317035
-0.56,-0.96,-0.17175232105459806
-0.54,-0.96,-0.2514395645745983
-0.52,-0.96,-0.32716145595854174
-0.5,-0.96,-0.39772381574523874
-0.48,-0.96,-0.46201383336894214
-0.45999999999999996,-0.96,-0.5190176168467314
-0.43999999999999995,-0.96,-0.5678361824607513
-0.42000000000000004,-0.96,-0.6076996322684717
-0.4,-0.96,-0.6379792958531539
-0.38,-0.96,-0.6581976448318739
-0.36,-0.96,-0.6680358237633802
-0.33999999999999997,-0.96,-0.6673386786888807
-0.31999999999999995,-0.96,-0.6561172040026543
-0.29999999999999993,-0.96,-0.6345483690638869
-0.28,-0.96,-0.6029723272841601
-0.26,-0.96,-0.5618870517049533
-0.24,-0.96,-0.5119404816653048
-0.21999999999999997,-0.96,-0.4539203044113736
-0.19999999999999996,-0.96,-0.3887415327980288
-0.17999999999999994,-0.96,-0.3174320749895241
-0.16000000000000003,-0.96,-0.2411165237337048
-0.14,-0.96,-0.16099842086257515
-0.12,-0.96,-0.0783412767186479
-0.09999999999999998,-0.96,0.00555135615794294
-0.07999999999999996,-0.96,0.08935644083170366
-0.05999999999999994,-0.96,0.1717523210545981
-0.040000000000000036,-0.96,0.2514395645745984
-0.020000000000000018,-0.96,0.32716145595854185
0.0,-0.96,0.39772381574523885
0.020000000000000018,-0.96,0.46201383336894225
0.040000000000000036,-0.96,0.5190176168467315
0.06000000000000005,-0.96,0.5678361824607514
0.08000000000000007,-0.96,0.6076996322684718
0.10000000000000009,-0.96,0.6379792958531542
0.1200000000000001,-0.96,0.6581976448318737
0.14000000000000012,-0.96,0.6680358237633806
0.15999999999999992,-0.96,0.6673386786888807
0.17999999999999994,-0.96,0.6561172040026545
0.19999999999999996,-0.96,0.6345483690638867
0.21999999999999997,-0.96,0.6029723272841601
0.24,-0.96,0.5618870517049533
0.26,-0.96,0.5119404816653046
0.28,-0.96,0.4539203044113734
0.30000000000000004,-0.96,0.3887415327980289
0.32000000000000006,-0.96,0.3174320749895241
0.3400000000000001,-0.96,0.2411165237337047
0.3600000000000001,-0.96,0.16099842086257526
0.3800000000000001,-0.96,0.07834127671864786
0.40000000000000013,-0.96,-0.005551356157942933
0.41999999999999993,-0.96,-0.08935644083170363
0.43999999999999995,-0.96,-0.17175232105459812
0.45999999999999996,-0.96,-0.25143956457459826
0.48,-0.96,-0.32716145595854185
0.5,-0.96,-0.39772381574523863
0.52,-0.96,-0.4620138333689421
0.54,-0.96,-0.5190176168467313
0.56,-0.96,-0.5678361824607512
0.5800000000000001,-0.96,-0.6076996322684716
0.6000000000000001,-0.96,-0.6379792958531542
0.6200000000000001,-0.96,-0.6581976448318738
0.6400000000000001,-0.96,-0.6680358237633804
0.6600000000000001,-0.96,-0.6673386786888806
0.6799999999999999,-0.96,-0.6561172040026543
0.7,-0.96,-0.6345483690638867
0.72,-0.96,-0.6029723272841602
0.74,-0.96,-0.5618870517049537
0.76,-0.96,-0.5119404816653048
0.78,-0.96,-0.45392030441137343
0.8,-0.96,-0.38874153279802875
0.8200000000000001,-0.96,-0.3174320749895241
0.8400000000000001,-0.96,-0.24111652373370468
0.8600000000000001,-0.96,-0.16099842086257513
0.8800000000000001,-0.96,-0.07834127671864778
0.9000000000000001,-0.96,0.005551356157943024
0.9199999999999999,-0.96,0.08935644083170363
0.94,-0.96,0.17175232105459823
0.96,-0.96,0.25143956457459826
0.98,-0.96,0.32716145595854174
1.0,-0.96,0.39772381574523863

-1.0,-0.94,0.4463604444482166
-0.98,-0.94,0.5111287160472644
-0.96,-0.94,0.5678361824607513
-0.94,-0.94,0.6155885330679387
-0.92,-0.94,0.6536326847738796
-0.9,-0.94,0.681368658579697
-0.88,-0.94,0.698359041609805
-0.86,-0.94,0.7043358853742564
-0.84,-0.94,0.6992049314764923
-0.8200000000000001,-0.94,0.683047098124564
-0.8,-0.94,0.6561172040026534
-0.78,-0.94,0.6188399496282015
-0.76,-0.94,0.5718032195710461
-0.74,-0.94,0.5157488111625684
-0.72,-0.94,0.4515607359086514
-0.7,-0.94,0.38025127810014664
-0.6799999999999999,-0.94,0.3029450304848998
-0.6599999999999999,-0.94,0.22086115876831675
-0.64,-0.94,0.1352941746418963
-0.62,-0.94,0.04759352056055055
-0.6,-0.94,-0.040857711771026206
-0.5800000000000001,-0.94,-0.12866459358076016
-0.56,-0.94,-0.214442357889223
-0.54,-0.94,-0.2968382381121175
-0.52,-0.94,-0.3745528019974159
-0.5,-0.94,-0.4463604444482166
-0.48,-0.94,-0.5111287160472644
-0.45999999999999996,-0.94,-0.5678361824607513
-0.43999999999999995,-0.94,-0.6155885330679386
-0.42000000000000004,-0.94,-0.6536326847738795
-0.4,-0.94,-0.6813686585796969
-0.38,-0.94,-0.6983590416098047
-0.36,-0.94,-0.7043358853742564
-0.33999999999999997,-0.94,-0.6992049314764922
-0.31999999999999995,-0.94,-0.6830470981245641
-0.29999999999999993,-0.94,-0.6561172040026534
-0.28,-0.94,-0.6188399496282017
-0.26,-0.94,-0.5718032195710462
-0.24,-0.94,-0.5157488111625684
-0.21999999999999997,-0.94,-0.45156073590865126
-0.19999999999999996,-0.94,-0.3802512781001466
-0.17999999999999994,-0.94,-0.3029450304848998
-0.16000000000000003,-0.94,-0.22086115876831675
-0.14,-0.94,-0.13529417464189633
-0.12,-0.94,-0.04759352056055051
-0.09999999999999998,-0.94,0.040857711771026345
-0.07999999999999996,-0.94,0.12866459358076018
-0.05999999999999994,-0.94,0.21444235788922303
-0.040000000000000036,-0.94,0.2968382381121176
-0.020000000000000018,-0.94,0.37455280199741603
0.0,-0.94,0.4463604444482167
0.020000000000000018,-0.94,0.5111287160472643
0.040000000000000036,-0.94,0.5678361824607514
0.06000000000000005,-0.94,0.6155885330679388
0.08000000000000007,-0.94,0.6536326847738797
0.10000000000000009,-0.94,0.6813686585796968
0.1200000000000001,-0.94,0.6983590416098051
0.14000000000000012,-0.94,0.7043358853742563
0.15999999999999992,-0.94,0.6992049314764925
0.17999999999999994,-0.94,0.683047098124564
0.19999999999999996,-0.94,0.6561172040026534
0.21999999999999997,-0.94,0.6188399496282015
0.24,-0.94,0.5718032195710461
0.26,-0.94,0.5157488111625682
0.28,-0.94,0.45156073590865137
0.30000000000000004,-0.94,0.3802512781001466
0.32000000000000006,-0.94,0.3029450304848997
0.3400000000000001,-0.94,0.22086115876831686
0.3600000000000001,-0.94,0.13529417464189628
0.3800000000000001,-0.94,0.04759352056055051
0.40000000000000013,-0.94,-0.040857711771026345
0.41999999999999993,-0.94,-0.12866459358076024
0.43999999999999995,-0.94,-0.21444235788922297
0.45999999999999996,-0.94,-0.2968382381121176
0.48,-0.94,-0.3745528019974159
0.5,-0.94,-0.4463604444482166
0.52,-0.94,-0.5111287160472643
0.54,-0.94,-0.5678361824607512
0.56,-0.94,-0.6155885330679385
0.5800000000000001,-0.94,-0.6536326847738798
0.6000000000000001,-0.94,-0.6813686585796969
0.6200000000000001,-0.94,-0.6983590416098051
0.6400000000000001,-0.94,-0.7043358853742562
0.6600000000000001,-0.94,-0.6992049314764922
0.6799999999999999,-0.94,-0.683047098124564
0.7,-0.94,-0.6561172040026536
0.72,-0.94,-0.6188399496282019
0.74,-0.94,-0.5718032195710462
0.76,-0.94,-0.5157488111625682
0.78,-0.94,-0.45156073590865115
0.8,-0.94,-0.38025127810014653
0.8200000000000001,-0.94,-0.3029450304848996
0.8400000000000001,-0.94,-0.2208611587683167
0.8600000000000001,-0.94,-0.13529417464189616
0.8800000000000001,-0.94,-0.0475935205605504
0.9000000000000001,-0.94,0.04085771177102636
0.9199999999999999,-0.94,0.12866459358076032
0.94,-0.94,0.21444235788922297
0.96,-0.94,0.2968382381121175
0.98,-0.94,0.3745528019974159
1.0,-0.94,0.4463604444482166

-1.0,-0.92,0.48795770229944135
-0.98,-0.92,0.5521827935400259
-0.96,-0.92,0.6076996322684716
-0.94,-0.92,0.6536326847738796
-0.92,-0.92,0.689257559379164
-0.9,-0.92,0.7140124305305307
-0.88,-0.92,0.7275068991220796
-0.86,-0.92,0.7295281493229165
-0.84,-0.92,0.7200443048099391
-0.8200000000000001,-0.92,0.699204931476491
-0.8,-0.92,0.6673386786888784
-0.78,-0.92,0.624948096289539
-0.76,-0.92,0.5727017090858165
-0.74,-0.92,0.5114234738143928
-0.72,-0.92,0.4420797848513415
-0.7,-0.92,0.3657642335955222
-0.6799999999999999,-0.92,0.2836803618789392
-0.6599999999999999,-0.92,0.19712268139309136
-0.64,-0.92,0.10745625846629224
-0.62,-0.92,0.016095186152222284
-0.6,-0.92,-0.07551971686226665
-0.5800000000000001,-0.92,-0.16594362882854552
-0.56,-0.92,-0.25375051063827947
-0.54,-0.92,-0.33755559531204055
-0.52,-0.92,-0.41603722660179226
-0.5,-0.92,-0.4879577022994413
-0.48,-0.92,-0.5521827935400258
-0.45999999999999996,-0.92,-0.6076996322684717
-0.43999999999999995,-0.92,-0.6536326847738795
-0.42000000000000004,-0.92,-0.6892575593791639
-0.4,-0.92,-0.7140124305305304
-0.38,-0.92,-0.7275068991220794
-0.36,-0.92,-0.7295281493229167
-0.33999999999999997,-0.92,-0.7200443048099392
-0.31999999999999995,-0.92,-0.6992049314764911
-0.29999999999999993,-0.92,-0.6673386786888785
-0.28,-0.92,-0.624948096289539
-0.26,-0.92,-0.5727017090858165
-0.24,-0.92,-0.5114234738143926
-0.21999999999999997,-0.92,-0.4420797848513415
-0.19999999999999996,-0.92,-0.3657642335955223
-0.17999999999999994,-0.92,-0.28368036187893925
-0.16000000000000003,-0.92,-0.19712268139309147
-0.14,-0.92,-0.10745625846629227
-0.12,-0.92,-0.016095186152222173
-0.09999999999999998,-0.92,0.07551971686226662
-0.07999999999999996,-0.92,0.1659436288285456
-0.05999999999999994,-0.92,0.25375051063827964
-0.040000000000000036,-0.92,0.33755559531204077
-0.020000000000000018,-0.92,0.4160372266017924
0.0,-0.92,0.4879577022994412
0.020000000000000018,-0.92,0.552182793540026
0.040000000000000036,-0.92,0.6076996322684718
0.06000000000000005,-0.92,0.6536326847738798
0.08000000000000007,-0.92,0.6892575593791639
0.10000000000000009,-0.92,0.7140124305305309
0.1200000000000001,-0.92,0.7275068991220794
0.14000000000000012,-0.92,0.7295281493229169
0.15999999999999992,-0.92,0.720044304809939
0.17999999999999994,-0.92,0.699204931476491
0.19999999999999996,-0.92,0.6673386786888785
0.21999999999999997,-0.92,0.6249480962895388
0.24,-0.92,0.5727017090858163
0.26,-0.92,0.5114234738143927
0.28,-0.92,0.44207978485134153
0.30000000000000004,-0.92,0.3657642335955221
0.32000000000000006,-0.92,0.28368036187893936
0.3400000000000001,-0.92,0.19712268139309141
0.3600000000000001,-0.92,0.10745625846629225
0.3800000000000001,-0.92,0.016095186152222152
0.40000000000000013,-0.92,-0.07551971686226669
0.41999999999999993,-0.92,-0.16594362882854555
0.43999999999999995,-0.92,-0.2537505106382796
0.45999999999999996,-0.92,-0.3375555953120406
0.48,-0.92,-0.4160372266017923
0.5,-0.92,-0.4879577022994412
0.52,-0.92,-0.5521827935400258
0.54,-0.92,-0.6076996322684716
0.56,-0.92,-0.6536326847738798
0.5800000000000001,-0.92,-0.6892575593791639
0.6000000000000001,-0.92,-0.7140124305305308
0.6200000000000001,-0.92,-0.7275068991220792
0.6400000000000001,-0.92,-0.7295281493229167
0.6600000000000001,-0.92,-0.7200443048099391
0.6799999999999999,-0.92,-0.6992049314764912
0.7,-0.92,-0.6673386786888788
0.72,-0.92,-0.624948096289539
0.74,-0.92,-0.5727017090858162
0.76,-0.92,-0.5114234738143926
0.78,-0.92,-0.4420797848513415
0.8,-0.92,-0.3657642335955221
0.8200000000000001,-0.92,-0.2836803618789392
0.8400000000000001,-0.92,-0.1971226813930913
0.8600000000000001,-0.92,-0.10745625846629213
0.8800000000000001,-0.92,-0.016095186152222104
0.9000000000000001,-0.92,0.07551971686226676
0.9199999999999999,-0.92,0.16594362882854552
0.94,-0.92,0.2537505106382795
0.96,-0.92,0.3375555953120406
0.98,-0.92,0.41603722660179226
1.0,-0.92,0.48795770229944135

-1.0,-0.9,0.5218595756936014
-0.98,-0.9,0.5845286185206487
-0.96,-0.9,0.637979295853154
-0.94,-0.9,0.681368658579697
-0.92,-0.9,0.7140124305305307
-0.9,-0.9,0.7353957999215467
-0.88,-0.9,0.7451815382436423
-0.86,-0.9,0.7432153185577617
-0.84,-0.9,0.7295281493229147
-0.8200000000000001,-0.9,0.704335885374253
-0.8,-0.9,0.668035823763376
-0.78,-0.9,0.6212004381464933
-0.76,-0.9,0.5645683505328858
-0.74,-0.9,0.49903268277458956
-0.72,-0.9,0.42562697150126366
-0.7,-0.9,0.34550886863013414
-0.6799999999999999,-0.9,0.25994188450371386
-0.6599999999999999,-0.9,0.1702754615769149
-0.64,-0.9,0.07792369290341752
-0.62,-0.9,-0.015656978956524802
-0.6,-0.9,-0.10899073090529685
-0.5800000000000001,-0.9,-0.20060563391978578
-0.56,-0.9,-0.289056866251363
-0.54,-0.9,-0.37294949912795416
-0.52,-0.9,-0.4509604956140657
-0.5,-0.9,-0.5218595756936013
-0.48,-0.9,-0.5845286185206487
-0.45999999999999996,-0.9,-0.637979295853154
-0.43999999999999995,-0.9,-0.6813686585796969
-0.42000000000000004,-0.9,-0.7140124305305305
-0.4,-0.9,-0.7353957999215465
-0.38,-0.9,-0.7451815382436423
-0.36,-0.9,-0.7432153185577618
-0.33999999999999997,-0.9,-0.7295281493229148
-0.31999999999999995,-0.9,-0.7043358853742532
-0.29999999999999993,-0.9,-0.6680358237633762
-0.28,-0.9,-0.6212004381464934
-0.26,-0.9,-0.5645683505328856
-0.24,-0.9,-0.4990326827745896
-0.21999999999999997,-0.9,-0.4256269715012638
-0.19999999999999996,-0.9,-0.34550886863013425
-0.17999999999999994,-0.9,-0.259941884503714
-0.16000000000000003,-0.9,-0.17027546157691495
-0.14,-0.9,-0.07792369290341745
-0.12,-0.9,0.015656978956524795
-0.09999999999999998,-0.9,0.10899073090529696
-0.07999999999999996,-0.9,0.20060563391978592
-0.05999999999999994,-0.9,0.2890568662513632
-0.040000000000000036,-0.9,0.37294949912795433
-0.020000000000000018,-0.9,0.45096049561406565
0.0,-0.9,0.5218595756936015
0.020000000000000018,-0.9,0.584528618520649
0.040000000000000036,-0.9,0.6379792958531543
0.06000000000000005,-0.9,0.681368658579697
0.08000000000000007,-0.9,0.7140124305305308
0.10000000000000009,-0.9,0.7353957999215465
0.1200000000000001,-0.9,0.7451815382436425
0.14000000000000012,-0.9,0.7432153185577615
0.15999999999999992,-0.9,0.7295281493229147
0.17999999999999994,-0.9,0.7043358853742533
0.19999999999999996,-0.9,0.6680358237633761
0.21999999999999997,-0.9,0.6212004381464932
0.24,-0.9,0.5645683505328858
0.26,-0.9,0.4990326827745896
0.28,-0.9,0.4256269715012636
0.30000000000000004,-0.9,0.3455088686301343
0.32000000000000006,-0.9,0.25994188450371397
0.3400000000000001,-0.9,0.17027546157691495
0.3600000000000001,-0.9,0.07792369290341744
0.3800000000000001,-0.9,-0.015656978956524858
0.40000000000000013,-0.9,-0.10899073090529693
0.41999999999999993,-0.9,-0.2006056339197859
0.43999999999999995,-0.9,-0.28905686625136306
0.45999999999999996,-0.9,-0.3729494991279542
0.48,-0.9,-0.4509604956140657
0.5,-0.9,-0.5218595756936012
0.52,-0.9,-0.5845286185206487
0.54,-0.9,-0.6379792958531543
0.56,-0.9,-0.681368658579697
0.5800000000000001,-0.9,-0.7140124305305309
0.6000000000000001,-0.9,-0.7353957999215461
0.6200000000000001,-0.9,-0.7451815382436424
0.6400000000000001,-0.9,-0.7432153185577616
0.6600000000000001,-0.9,-0.7295281493229149
0.6799999999999999,-0.9,-0.7043358853742533
0.7,-0.9,-0.6680358237633762
0.72,-0.9,-0.621200438146493
0.74,-0.9,-0.5645683505328857
0.76,-0.9,-0.49903268277458956
0.78,-0.9,-0.4256269715012636
0.8,-0.9,-0.34550886863013414
0.8200000000000001,-0.9,-0.2599418845037139
0.8400000000000001,-0.9,-0.17027546157691478
0.8600000000000001,-0.9,-0.07792369290341733
0.8800000000000001,-0.9,0.015656978956524906
0.9000000000000001,-0.9,0.1089907309052969
0.9199999999999999,-0.9,0.2006056339197859
0.94,-0.9,0.2890568662513631
0.96,-0.9,0.3729494991279542
0.98,-0.9,0.45096049561406576
1.0,-0.9,0.5218595756936014

-1.0,-0.88,0.5475314118352732
-0.98,-0.88,0.6076560780067296
-0.96,-0.88,0.6581976448318739
-0.94,-0.88,0.698359041609805
-0.92,-0.88,0.7275068991220796
-0.9,-0.88,0.7451815382436423
-0.88,-0.88,0.7511042193572285
-0.86,-0.88,0.7451815382436398
-0.84,-0.88,0.7275068991220752
-0.8200000000000001,-0.88,0.6983590416097998
-0.8,-0.88,0.6581976448318679
-0.78,-0.88,0.6076560780067233
-0.76,-0.88,0.5475314118352664
-0.74,-0.88,0.4787718482197568
-0.72,-0.88,0.4024617665533822
-0.7,-0.88,0.3198046224094554
-0.6799999999999999,-0.88,0.23210396832811
-0.6599999999999999,-0.88,0.14074289601404028
-0.64,-0.88,0.047162224154098015
-0.62,-0.88,-0.04716222415410147
-0.6,-0.88,-0.1407428960140438
-0.5800000000000001,-0.88,-0.23210396832811422
-0.56,-0.88,-0.3198046224094603
-0.54,-0.88,-0.402461766553388
-0.52,-0.88,-0.47877184821976304
-0.5,-0.88,-0.5475314118352733
-0.48,-0.88,-0.6076560780067296
-0.45999999999999996,-0.88,-0.6581976448318738
-0.43999999999999995,-0.88,-0.6983590416098049
-0.42000000000000004,-0.88,-0.7275068991220794
-0.4,-0.88,-0.7451815382436422
-0.38,-0.88,-0.7511042193572285
-0.36,-0.88,-0.7451815382436398
-0.33999999999999997,-0.88,-0.7275068991220754
-0.31999999999999995,-0.88,-0.6983590416097999
-0.29999999999999993,-0.88,-0.658197644831868
-0.28,-0.88,-0.6076560780067232
-0.26,-0.88,-0.5475314118352664
-0.24,-0.88,-0.47877184821975693
-0.21999999999999997,-0.88,-0.4024617665533825
-0.19999999999999996,-0.88,-0.3198046224094556
-0.17999999999999994,-0.88,-0.23210396832811017
-0.16000000000000003,-0.88,-0.14074289601404025
-0.14,-0.88,-0.04716222415409801
-0.12,-0.88,0.04716222415410158
-0.09999999999999998,-0.88,0.1407428960140439
-0.07999999999999996,-0.88,0.23210396832811434
-0.05999999999999994,-0.88,0.3198046224094605
-0.040000000000000036,-0.88,0.40246176655338806
-0.020000000000000018,-0.88,0.47877184821976326
0.0,-0.88,0.5475314118352734
0.020000000000000018,-0.88,0.6076560780067299
0.040000000000000036,-0.88,0.658197644831874
0.06000000000000005,-0.88,0.6983590416098051
0.08000000000000007,-0.88,0.7275068991220794
0.10000000000000009,-0.88,0.7451815382436425
0.1200000000000001,-0.88,0.7511042193572284
0.14000000000000012,-0.88,0.7451815382436398
0.15999999999999992,-0.88,0.7275068991220756
0.17999999999999994,-0.88,0.6983590416097998
0.19999999999999996,-0.88,0.658197644831868
0.21999999999999997,-0.88,0.6076560780067233
0.24,-0.88,0.5475314118352664
0.26,-0.88,0.47877184821975677
0.28,-0.88,0.40246176655338245
0.30000000000000004,-0.88,0.31980462240945556
0.32000000000000006,-0.88,0.23210396832811014
0.3400000000000001,-0.88,0.1407428960140402
0.3600000000000001,-0.88,0.047162224154097945
0.3800000000000001,-0.88,-0.047162224154101554
0.40000000000000013,-0.88,-0.1407428960140439
0.41999999999999993,-0.88,-0.23210396832811428
0.43999999999999995,-0.88,-0.3198046224094604
0.45999999999999996,-0.88,-0.40246176655338806
0.48,-0.88,-0.47877184821976293
0.5,-0.88,-0.5475314118352732
0.52,-0.88,-0.6076560780067298
0.54,-0.88,-0.6581976448318739
0.56,-0.88,-0.6983590416098052
0.5800000000000001,-0.88,-0.7275068991220791
0.6000000000000001,-0.88,-0.7451815382436423
0.6200000000000001,-0.88,-0.7511042193572285
0.6400000000000001,-0.88,-0.7451815382436399
0.6600000000000001,-0.88,-0.7275068991220754
0.6799999999999999,-0.88,-0.6983590416097998
0.7,-0.88,-0.6581976448318678
0.72,-0.88,-0.6076560780067232
0.74,-0.88,-0.5475314118352664
0.76,-0.88,-0.47877184821975677
0.78,-0.88,-0.40246176655338234
0.8,-0.88,-0.31980462240945545
0.8200000000000001,-0.88,-0.23210396832810998
0.8400000000000001,-0.88,-0.14074289601404008
0.8600000000000001,-0.88,-0.04716222415409792
0.8800000000000001,-0.88,0.047162224154101526
0.9000000000000001,-0.88,0.1407428960140439
0.9199999999999999,-0.88,0.23210396832811428
0.94,-0.88,0.3198046224094604
0.96,-0.88,0.40246176655338817
0.98,-0.88,0.47877184821976315
1.0,-0.88,0.5475314118352732

-1.0,-0.86,0.5645683505328913
-0.98,-0.86,0.6212004381464983
-0.96,-0.86,0.6680358237633804
-0.94,-0.86,0.7043358853742565
-0.92,-0.86,0.7295281493229168
-0.9,-0.86,0.7432153185577616
-0.88,-0.86,0.7451815382436396
-0.86,-0.86,0.735395799921542
-0.84,-0.86,0.714012430530525
-0.8200000000000001,-0.86,0.6813686585796904
-0.8,-0.86,0.6379792958531472
-0.78,-0.86,0.5845286185206412
-0.76,-0.86,0.5218595756935943
-0.74,-0.86,0.45096049561405915
-0.72,-0.86,0.3729494991279487
-0.7,-0.86,0.28905686625135835
-0.6799999999999999,-0.86,0.20060563391978203
-0.6599999999999999,-0.86,0.10899073090529333
-0.64,-0.86,0.015656978956521406
-0.62,-0.86,-0.07792369290342085
-0.6,-0.86,-0.17027546157691867
-0.5800000000000001,-0.86,-0.2599418845037181
-0.56,-0.86,-0.3455088686301391
-0.54,-0.86,-0.42562697150126916
-0.52,-0.86,-0.4990326827745954
-0.5,-0.86,-0.5645683505328914
-0.48,-0.86,-0.6212004381464983
-0.45999999999999996,-0.86,-0.6680358237633803
-0.43999999999999995,-0.86,-0.7043358853742563
-0.42000000000000004,-0.86,-0.7295281493229167
-0.4,-0.86,-0.7432153185577617
-0.38,-0.86,-0.7451815382436399
-0.36,-0.86,-0.7353957999215421
-0.33999999999999997,-0.86,-0.7140124305305251
-0.31999999999999995,-0.86,-0.6813686585796904
-0.29999999999999993,-0.86,-0.6379792958531469
-0.28,-0.86,-0.5845286185206412
-0.26,-0.86,-0.5218595756935943
-0.24,-0.86,-0.4509604956140596
-0.21999999999999997,-0.86,-0.3729494991279489
-0.19999999999999996,-0.86,-0.2890568662513586
-0.17999999999999994,-0.86,-0.200605633919782
-0.16000000000000003,-0.86,-0.10899073090529333
-0.14,-0.86,-0.015656978956521315
-0.12,-0.86,0.07792369290342097
-0.09999999999999998,-0.86,0.1702754615769188
-0.07999999999999996,-0.86,0.25994188450371836
-0.05999999999999994,-0.86,0.3455088686301392
-0.040000000000000036,-0.86,0.4256269715012693
-0.020000000000000018,-0.86,0.4990326827745956
0.0,-0.86,0.5645683505328917
0.020000000000000018,-0.86,0.6212004381464984
0.040000000000000036,-0.86,0.6680358237633804
0.06000000000000005,-0.86,0.7043358853742564
0.08000000000000007,-0.86,0.7295281493229168
0.10000000000000009,-0.86,0.7432153185577615
0.1200000000000001,-0.86,0.7451815382436398
0.14000000000000012,-0.86,0.7353957999215422
0.15999999999999992,-0.86,0.714012430530525
0.17999999999999994,-0.86,0.6813686585796905
0.19999999999999996,-0.86,0.637979295853147
0.21999999999999997,-0.86,0.5845286185206412
0.24,-0.86,0.5218595756935943
0.26,-0.86,0.4509604956140595
0.28,-0.86,0.37294949912794884
0.30000000000000004,-0.86,0.28905686625135857
0.32000000000000006,-0.86,0.20060563391978195
0.3400000000000001,-0.86,0.10899073090529326
0.3600000000000001,-0.86,0.015656978956521336
0.3800000000000001,-0.86,-0.077923692903421
0.40000000000000013,-0.86,-0.17027546157691872