TITLE = "Solution" 
VARIABLES = "x", "y", "sol" 
ZONE STRANDID=1, SOLUTIONTIME= 0.4400000000000002, I= 101, J =101, DATAPACKING=POINT 
-1.0,-1.0,-0.011550759350679712
-0.98,-1.0,0.03143857299340952
-0.96,-1.0,0.07393210026089952
-0.94,-1.0,0.1152596741423792
-0.92,-1.0,0.1547695341098417
-0.9,-1.0,0.1918385860695539
-0.88,-1.0,0.22588222892813248
-0.86,-1.0,0.2563635741010115
-0.84,-1.0,0.2828019125661417
-0.8200000000000001,-1.0,0.30478029593243
-0.8,-1.0,0.32195211196493984
-0.78,-1.0,0.3340465508668935
-0.76,-1.0,0.3408728761119388
-0.74,-1.0,0.3423234324731129
-0.72,-1.0,0.3383753438100799
-0.7,-1.0,0.32909087383952956
-0.6799999999999999,-1.0,0.3146164441991709
-0.6599999999999999,-1.0,0.29518032529103755
-0.64,-1.0,0.27108903632088543
-0.62,-1.0,0.24272251130721204
-0.6,-1.0,0.2105281072948239
-0.5800000000000001,-1.0,0.17501354926700102
-0.56,-1.0,0.1367389230192108
-0.54,-1.0,0.0963078422715344
-0.52,-1.0,0.054357929319719514
-0.5,-1.0,0.01155075935067966
-0.48,-1.0,-0.03143857299340957
-0.45999999999999996,-1.0,-0.07393210026089958
-0.43999999999999995,-1.0,-0.11525967414237925
-0.42000000000000004,-1.0,-0.1547695341098418
-0.4,-1.0,-0.19183858606955384
-0.38,-1.0,-0.22588222892813253
-0.36,-1.0,-0.2563635741010115
-0.33999999999999997,-1.0,-0.2828019125661417
-0.31999999999999995,-1.0,-0.3047802959324299
-0.29999999999999993,-1.0,-0.32195211196493995
-0.28,-1.0,-0.3340465508668935
-0.26,-1.0,-0.3408728761119389
-0.24,-1.0,-0.3423234324731128
-0.21999999999999997,-1.0,-0.3383753438100798
-0.19999999999999996,-1.0,-0.3290908738395296
-0.17999999999999994,-1.0,-0.314616444199171
-0.16000000000000003,-1.0,-0.29518032529103766
-0.14,-1.0,-0.27108903632088543
-0.12,-1.0,-0.242722511307212
-0.09999999999999998,-1.0,-0.2105281072948239
-0.07999999999999996,-1.0,-0.17501354926700097
-0.05999999999999994,-1.0,-0.13673892301921073
-0.040000000000000036,-1.0,-0.09630784227153433
-0.020000000000000018,-1.0,-0.05435792931971947
0.0,-1.0,-0.011550759350679653
0.020000000000000018,-1.0,0.03143857299340955
0.040000000000000036,-1.0,0.07393210026089952
0.06000000000000005,-1.0,0.1152596741423792
0.08000000000000007,-1.0,0.15476953410984165
0.10000000000000009,-1.0,0.1918385860695539
0.1200000000000001,-1.0,0.22588222892813248
0.14000000000000012,-1.0,0.25636357410101146
0.15999999999999992,-1.0,0.28280191256614157
0.17999999999999994,-1.0,0.3047802959324299
0.19999999999999996,-1.0,0.32195211196493995
0.21999999999999997,-1.0,0.3340465508668934
0.24,-1.0,0.3408728761119388
0.26,-1.0,0.3423234324731128
0.28,-1.0,0.3383753438100799
0.30000000000000004,-1.0,0.3290908738395295
0.32000000000000006,-1.0,0.3146164441991709
0.3400000000000001,-1.0,0.29518032529103755
0.3600000000000001,-1.0,0.27108903632088527
0.3800000000000001,-1.0,0.24272251130721198
0.40000000000000013,-1.0,0.21052810729482382
0.41999999999999993,-1.0,0.1750135492670009
0.43999999999999995,-1.0,0.1367389230192107
0.45999999999999996,-1.0,0.0963078422715343
0.48,-1.0,0.054357929319719486
0.5,-1.0,0.011550759350679653
0.52,-1.0,-0.031438572993409575
0.54,-1.0,-0.07393210026089952
0.56,-1.0,-0.11525967414237923
0.5800000000000001,-1.0,-0.1547695341098418
0.6000000000000001,-1.0,-0.19183858606955378
0.6200000000000001,-1.0,-0.22588222892813248
0.6400000000000001,-1.0,-0.25636357410101146
0.6600000000000001,-1.0,-0.2828019125661416
0.6799999999999999,-1.0,-0.3047802959324299
0.7,-1.0,-0.3219521119649399
0.72,-1.0,-0.33404655086689344
0.74,-1.0,-0.3408728761119387
0.76,-1.0,-0.34232343247311275
0.78,-1.0,-0.33837534381007994
0.8,-1.0,-0.3290908738395295
0.8200000000000001,-1.0,-0.31461644419917084
0.8400000000000001,-1.0,-0.2951803252910375
0.8600000000000001,-1.0,-0.2710890363208852
0.8800000000000001,-1.0,-0.242722511307212
0.9000000000000001,-1.0,-0.21052810729482382
0.9199999999999999,-1.0,-0.17501354926700094
0.94,-1.0,-0.13673892301921076
0.96,-1.0,-0.0963078422715344
0.98,-1.0,-0.054357929319719556
1.0,-1.0,-0.011550759350679712

-1.0,-0.98,0.03143857299340951
-0.98,-0.98,0.08502015687052797
-0.96,-0.98,0.13726092208521828
-0.94,-0.98,0.1873370005629244
-0.92,-0.98,0.23445866263205373
-0.9,-0.98,0.27788277153265906
-0.88,-0.98,0.31692450312707304
-0.86,-0.98,0.35096814598565185
-0.84,-0.98,0.379476811523829
-0.8200000000000001,-0.98,0.4020009010558159
-0.8,-0.98,0.4181851962344546
-0.78,-0.98,0.42777446105674827
-0.76,-0.98,0.4306174670881002
-0.74,-0.98,0.426669378425067
-0.72,-0.98,0.41599245878433866
-0.7,-0.98,0.3987550895667318
-0.6799999999999999,-0.98,0.3752291143819133
-0.6599999999999999,-0.98,0.3457855519122842
-0.64,-0.98,0.310888744726722
-0.62,-0.98,0.2710890363208854
-0.6,-0.98,0.2270140918715276
-0.5800000000000001,-0.98,0.1793589995817106
-0.56,-0.98,0.1288753087246171
-0.54,-0.98,0.07635917726255861
-0.52,-0.98,0.02263881596030812
-0.5,-0.98,-0.031438572993409575
-0.48,-0.98,-0.08502015687052805
-0.45999999999999996,-0.98,-0.13726092208521837
-0.43999999999999995,-0.98,-0.18733700056292452
-0.42000000000000004,-0.98,-0.23445866263205364
-0.4,-0.98,-0.27788277153265917
-0.38,-0.98,-0.31692450312707304
-0.36,-0.98,-0.35096814598565185
-0.33999999999999997,-0.98,-0.379476811523829
-0.31999999999999995,-0.98,-0.402000901055816
-0.29999999999999993,-0.98,-0.41818519623445466
-0.28,-0.98,-0.4277744610567483
-0.26,-0.98,-0.43061746708810017
-0.24,-0.98,-0.42666937842506697
-0.21999999999999997,-0.98,-0.4159924587843388
-0.19999999999999996,-0.98,-0.39875508956673184
-0.17999999999999994,-0.98,-0.3752291143819134
-0.16000000000000003,-0.98,-0.3457855519122842
-0.14,-0.98,-0.310888744726722
-0.12,-0.98,-0.2710890363208854
-0.09999999999999998,-0.98,-0.22701409187152755
-0.07999999999999996,-0.98,-0.17935899958171045
-0.05999999999999994,-0.98,-0.12887530872461705
-0.040000000000000036,-0.98,-0.07635917726255854
-0.020000000000000018,-0.98,-0.022638815960308086
0.0,-0.98,0.031438572993409575
0.020000000000000018,-0.98,0.085020156870528
0.040000000000000036,-0.98,0.1372609220852183
0.06000000000000005,-0.98,0.18733700056292438
0.08000000000000007,-0.98,0.23445866263205373
0.10000000000000009,-0.98,0.27788277153265906
0.1200000000000001,-0.98,0.31692450312707293
0.14000000000000012,-0.98,0.35096814598565174
0.15999999999999992,-0.98,0.3794768115238289
0.17999999999999994,-0.98,0.40200090105581593
0.19999999999999996,-0.98,0.4181851962344545
0.21999999999999997,-0.98,0.4277744610567482
0.24,-0.98,0.43061746708810006
0.26,-0.98,0.42666937842506697
0.28,-0.98,0.4159924587843386
0.30000000000000004,-0.98,0.3987550895667318
0.32000000000000006,-0.98,0.3752291143819133
0.3400000000000001,-0.98,0.3457855519122841
0.3600000000000001,-0.98,0.31088874472672196
0.3800000000000001,-0.98,0.27108903632088527
0.40000000000000013,-0.98,0.2270140918715275
0.41999999999999993,-0.98,0.17935899958171045
0.43999999999999995,-0.98,0.128875308724617
0.45999999999999996,-0.98,0.07635917726255854
0.48,-0.98,0.022638815960308076
0.5,-0.98,-0.03143857299340959
0.52,-0.98,-0.085020156870528
0.54,-0.98,-0.1372609220852183
0.56,-0.98,-0.1873370005629245
0.5800000000000001,-0.98,-0.23445866263205364
0.6000000000000001,-0.98,-0.2778827715326591
0.6200000000000001,-0.98,-0.3169245031270731
0.6400000000000001,-0.98,-0.35096814598565174
0.6600000000000001,-0.98,-0.3794768115238289
0.6799999999999999,-0.98,-0.40200090105581593
0.7,-0.98,-0.4181851962344546
0.72,-0.98,-0.42777446105674816
0.74,-0.98,-0.43061746708810006
0.76,-0.98,-0.4266693784250671
0.78,-0.98,-0.41599245878433866
0.8,-0.98,-0.3987550895667317
0.8200000000000001,-0.98,-0.37522911438191325
0.8400000000000001,-0.98,-0.345785551912284
0.8600000000000001,-0.98,-0.31088874472672196
0.8800000000000001,-0.98,-0.27108903632088527
0.9000000000000001,-0.98,-0.2270140918715275
0.9199999999999999,-0.98,-0.1793589995817105
0.94,-0.98,-0.12887530872461708
0.96,-0.98,-0.07635917726255864
0.98,-0.98,-0.022638815960308173
1.0,-0.98,0.03143857299340951

-1.0,-0.96,0.0739321002608995
-0.98,-0.96,0.13726092208521826
-0.96,-0.96,0.19842505717255288
-0.94,-0.96,0.25645991057489287
-0.92,-0.96,0.3104502379857418
-0.9,-0.96,0.3595445796895728
-0.88,-0.96,0.4029686885901785
-0.86,-0.96,0.44003774054989075
-0.84,-0.96,0.47016713447532615
-0.8200000000000001,-0.96,0.4928817118258538
-0.8,-0.96,0.5078232501476245
-0.78,-0.96,0.5147561124556616
-0.76,-0.96,0.5135709633698763
-0.74,-0.96,0.5042864933993259
-0.72,-0.96,0.4870491241817188
-0.7,-0.96,0.4621306993267224
-0.6799999999999999,-0.96,0.4299241972798451
-0.6599999999999999,-0.96,0.39093753381759777
-0.64,-0.96,0.34578555191228416
-0.62,-0.96,0.2951803252910376
-0.6,-0.96,0.2399199286077721
-0.5800000000000001,-0.96,0.1808758513291437
-0.56,-0.96,0.11897925382505836
-0.54,-0.96,0.055206282413390845
-0.52,-0.96,-0.009437325050570478
-0.5,-0.96,-0.0739321002608996
-0.48,-0.96,-0.13726092208521837
-0.45999999999999996,-0.96,-0.198425057172553
-0.43999999999999995,-0.96,-0.2564599105748928
-0.42000000000000004,-0.96,-0.3104502379857419
-0.4,-0.96,-0.3595445796895729
-0.38,-0.96,-0.4029686885901785
-0.36,-0.96,-0.4400377405498907
-0.33999999999999997,-0.96,-0.4701671344753263
-0.31999999999999995,-0.96,-0.4928817118258538
-0.29999999999999993,-0.96,-0.5078232501476245
-0.28,-0.96,-0.5147561124556614
-0.26,-0.96,-0.5135709633698764
-0.24,-0.96,-0.504286493399326
-0.21999999999999997,-0.96,-0.48704912418171886
-0.19999999999999996,-0.96,-0.4621306993267225
-0.17999999999999994,-0.96,-0.42992419727984504
-0.16000000000000003,-0.96,-0.3909375338175977
-0.14,-0.96,-0.3457855519122842
-0.12,-0.96,-0.2951803252910376
-0.09999999999999998,-0.96,-0.23991992860777192
-0.07999999999999996,-0.96,-0.18087585132914363
-0.05999999999999994,-0.96,-0.1189792538250583
-0.040000000000000036,-0.96,-0.05520628241339078
-0.020000000000000018,-0.96,0.009437325050570499
0.0,-0.96,0.07393210026089957
0.020000000000000018,-0.96,0.1372609220852183
0.040000000000000036,-0.96,0.19842505717255282
0.06000000000000005,-0.96,0.2564599105748928
0.08000000000000007,-0.96,0.31045023798574184
0.10000000000000009,-0.96,0.35954457968957276
0.1200000000000001,-0.96,0.40296868859017837
0.14000000000000012,-0.96,0.4400377405498906
0.15999999999999992,-0.96,0.4701671344753262
0.17999999999999994,-0.96,0.4928817118258537
0.19999999999999996,-0.96,0.5078232501476244
0.21999999999999997,-0.96,0.5147561124556613
0.24,-0.96,0.5135709633698763
0.26,-0.96,0.5042864933993257
0.28,-0.96,0.48704912418171886
0.30000000000000004,-0.96,0.46213069932672235
0.32000000000000006,-0.96,0.4299241972798449
0.3400000000000001,-0.96,0.3909375338175977
0.3600000000000001,-0.96,0.3457855519122841
0.3800000000000001,-0.96,0.29518032529103755
0.40000000000000013,-0.96,0.23991992860777195
0.41999999999999993,-0.96,0.18087585132914355
0.43999999999999995,-0.96,0.11897925382505829
0.45999999999999996,-0.96,0.055206282413390755
0.48,-0.96,-0.009437325050570506
0.5,-0.96,-0.07393210026089954
0.52,-0.96,-0.13726092208521834
0.54,-0.96,-0.19842505717255293
0.56,-0.96,-0.2564599105748928
0.5800000000000001,-0.96,-0.31045023798574184
0.6000000000000001,-0.96,-0.35954457968957293
0.6200000000000001,-0.96,-0.4029686885901783
0.6400000000000001,-0.96,-0.44003774054989053
0.6600000000000001,-0.96,-0.4701671344753263
0.6799999999999999,-0.96,-0.49288171182585383
0.7,-0.96,-0.5078232501476243
0.72,-0.96,-0.5147561124556614
0.74,-0.96,-0.5135709633698764
0.76,-0.96,-0.504286493399326
0.78,-0.96,-0.48704912418171886
0.8,-0.96,-0.46213069932672235
0.8200000000000001,-0.96,-0.42992419727984493
0.8400000000000001,-0.96,-0.39093753381759777
0.8600000000000001,-0.96,-0.34578555191228405
0.8800000000000001,-0.96,-0.2951803252910375
0.9000000000000001,-0.96,-0.239919928607772
0.9199999999999999,-0.96,-0.18087585132914363
0.94,-0.96,-0.11897925382505838
0.96,-0.96,-0.055206282413390886
0.98,-0.96,0.009437325050570409
1.0,-0.96,0.0739321002608995

-1.0,-0.94,0.11525967414237916
-0.98,-0.94,0.1873370005629244
-0.96,-0.94,0.2564599105748928
-0.94,-0.94,0.32153829459537026
-0.92,-0.94,0.3815458276324119
-0.9,-0.94,0.4355361550432613
-0.88,-0.94,0.4826578171123907
-0.86,-0.94,0.522167677079853
-0.84,-0.94,0.5534426408519155
-0.8200000000000001,-0.94,0.5759894835671349
-0.8,-0.94,0.5894526280470609
-0.78,-0.94,0.5936197524607525
-0.76,-0.94,0.588425138766887
-0.74,-0.94,0.5739507091265279
-0.72,-0.94,0.5504247339417097
-0.7,-0.94,0.5182182318948321
-0.6799999999999999,-0.94,0.47783911876240676
-0.6599999999999999,-0.94,0.429924197279845
-0.64,-0.94,0.3752291143819133
-0.62,-0.94,0.3146164441991709
-0.6,-0.94,0.2490420847486538
-0.5800000000000001,-0.94,0.17954018285111986
-0.56,-0.94,0.10720682501791741
-0.54,-0.94,0.03318275151192927
-0.52,-0.94,-0.041364633807816895
-0.5,-0.94,-0.11525967414237925
-0.48,-0.94,-0.18733700056292452
-0.45999999999999996,-0.94,-0.2564599105748928
-0.43999999999999995,-0.94,-0.3215382945953703
-0.42000000000000004,-0.94,-0.381545827632412
-0.4,-0.94,-0.4355361550432612
-0.38,-0.94,-0.48265781711239064
-0.36,-0.94,-0.522167677079853
-0.33999999999999997,-0.94,-0.5534426408519155
-0.31999999999999995,-0.94,-0.575989483567135
-0.29999999999999993,-0.94,-0.5894526280470609
-0.28,-0.94,-0.5936197524607526
-0.26,-0.94,-0.5884251387668871
-0.24,-0.94,-0.5739507091265281
-0.21999999999999997,-0.94,-0.5504247339417097
-0.19999999999999996,-0.94,-0.5182182318948321
-0.17999999999999994,-0.94,-0.4778391187624067
-0.16000000000000003,-0.94,-0.42992419727984504
-0.14,-0.94,-0.3752291143819134
-0.12,-0.94,-0.31461644419917073
-0.09999999999999998,-0.94,-0.2490420847486537
-0.07999999999999996,-0.94,-0.1795401828511198
-0.05999999999999994,-0.94,-0.1072068250179173
-0.040000000000000036,-0.94,-0.03318275151192923
-0.020000000000000018,-0.94,0.04136463380781687
0.0,-0.94,0.11525967414237923
0.020000000000000018,-0.94,0.1873370005629244
0.040000000000000036,-0.94,0.25645991057489276
0.06000000000000005,-0.94,0.3215382945953703
0.08000000000000007,-0.94,0.3815458276324119
0.10000000000000009,-0.94,0.43553615504326115
0.1200000000000001,-0.94,0.4826578171123904
0.14000000000000012,-0.94,0.5221676770798529
0.15999999999999992,-0.94,0.5534426408519155
0.17999999999999994,-0.94,0.5759894835671348
0.19999999999999996,-0.94,0.5894526280470606
0.21999999999999997,-0.94,0.5936197524607526
0.24,-0.94,0.5884251387668867
0.26,-0.94,0.5739507091265281
0.28,-0.94,0.5504247339417094
0.30000000000000004,-0.94,0.5182182318948318
0.32000000000000006,-0.94,0.47783911876240676
0.3400000000000001,-0.94,0.42992419727984504
0.3600000000000001,-0.94,0.3752291143819133
0.3800000000000001,-0.94,0.3146164441991708
0.40000000000000013,-0.94,0.24904208474865366
0.41999999999999993,-0.94,0.17954018285111972
0.43999999999999995,-0.94,0.10720682501791726
0.45999999999999996,-0.94,0.0331827515119292
0.48,-0.94,-0.04136463380781687
0.5,-0.94,-0.11525967414237924
0.52,-0.94,-0.1873370005629245
0.54,-0.94,-0.2564599105748928
0.56,-0.94,-0.3215382945953703
0.5800000000000001,-0.94,-0.381545827632412
0.6000000000000001,-0.94,-0.4355361550432611
0.6200000000000001,-0.94,-0.48265781711239036
0.6400000000000001,-0.94,-0.5221676770798531
0.6600000000000001,-0.94,-0.5534426408519155
0.6799999999999999,-0.94,-0.5759894835671346
0.7,-0.94,-0.5894526280470608
0.72,-0.94,-0.5936197524607526
0.74,-0.94,-0.5884251387668868
0.76,-0.94,-0.5739507091265281
0.78,-0.94,-0.5504247339417094
0.8,-0.94,-0.5182182318948321
0.8200000000000001,-0.94,-0.4778391187624068
0.8400000000000001,-0.94,-0.42992419727984493
0.8600000000000001,-0.94,-0.37522911438191325
0.8800000000000001,-0.94,-0.31461644419917084
0.9000000000000001,-0.94,-0.2490420847486537
0.9199999999999999,-0.94,-0.17954018285111983
0.94,-0.94,-0.10720682501791742
0.96,-0.94,-0.03318275151192935
0.98,-0.94,0.0413646338078168
1.0,-0.94,0.11525967414237916

-1.0,-0.92,0.15476953410984168
-0.98,-0.92,0.23445866263205367
-0.96,-0.92,0.3104502379857418
-0.94,-0.92,0.38154582763241196
-0.92,-0.92,0.44662421165288974
-0.9,-0.92,0.50465906505523
-0.88,-0.92,0.5547351435329358
-0.86,-0.92,0.5960627174144154
-0.84,-0.92,0.6279900261716617
-0.8200000000000001,-0.92,0.6500135570731228
-0.8,-0.92,0.661785985880263
-0.78,-0.92,0.6631216543582861
-0.76,-0.92,0.6539994982174039
-0.74,-0.92,0.6345633793092705
-0.72,-0.92,0.6051198168396412
-0.7,-0.92,0.5661331533773938
-0.6799999999999999,-0.92,0.5182182318948321
-0.6599999999999999,-0.92,0.4621306993267223
-0.64,-0.92,0.3987550895667317
-0.62,-0.92,0.3290908738395296
-0.6,-0.92,0.2542366984425188
-0.5800000000000001,-0.92,0.17537305843742745
-0.56,-0.92,0.09374368053799076
-0.54,-0.92,0.010635908796709634
-0.52,-0.92,-0.07263959757987952
-0.5,-0.92,-0.1547695341098418
-0.48,-0.92,-0.23445866263205367
-0.45999999999999996,-0.92,-0.3104502379857419
-0.43999999999999995,-0.92,-0.381545827632412
-0.42000000000000004,-0.92,-0.4466242116528897
-0.4,-0.92,-0.5046590650552298
-0.38,-0.92,-0.5547351435329358
-0.36,-0.92,-0.5960627174144154
-0.33999999999999997,-0.92,-0.6279900261716618
-0.31999999999999995,-0.92,-0.6500135570731227
-0.29999999999999993,-0.92,-0.6617859858802633
-0.28,-0.92,-0.6631216543582862
-0.26,-0.92,-0.6539994982174042
-0.24,-0.92,-0.6345633793092706
-0.21999999999999997,-0.92,-0.6051198168396413
-0.19999999999999996,-0.92,-0.5661331533773938
-0.17999999999999994,-0.92,-0.5182182318948321
-0.16000000000000003,-0.92,-0.46213069932672246
-0.14,-0.92,-0.39875508956673167
-0.12,-0.92,-0.32909087383952945
-0.09999999999999998,-0.92,-0.25423669844251867
-0.07999999999999996,-0.92,-0.1753730584374273
-0.05999999999999994,-0.92,-0.09374368053799068
-0.040000000000000036,-0.92,-0.01063590879670963
-0.020000000000000018,-0.92,0.0726395975798795
0.0,-0.92,0.15476953410984173
0.020000000000000018,-0.92,0.23445866263205364
0.040000000000000036,-0.92,0.31045023798574184
0.06000000000000005,-0.92,0.3815458276324119
0.08000000000000007,-0.92,0.4466242116528897
0.10000000000000009,-0.92,0.5046590650552296
0.1200000000000001,-0.92,0.5547351435329357
0.14000000000000012,-0.92,0.5960627174144154
0.15999999999999992,-0.92,0.6279900261716616
0.17999999999999994,-0.92,0.6500135570731224
0.19999999999999996,-0.92,0.6617859858802632
0.21999999999999997,-0.92,0.6631216543582861
0.24,-0.92,0.6539994982174041
0.26,-0.92,0.6345633793092705
0.28,-0.92,0.605119816839641
0.30000000000000004,-0.92,0.5661331533773938
0.32000000000000006,-0.92,0.5182182318948321
0.3400000000000001,-0.92,0.46213069932672235
0.3600000000000001,-0.92,0.39875508956673156
0.3800000000000001,-0.92,0.32909087383952945
0.40000000000000013,-0.92,0.25423669844251856
0.41999999999999993,-0.92,0.17537305843742726
0.43999999999999995,-0.92,0.0937436805379906
0.45999999999999996,-0.92,0.010635908796709627
0.48,-0.92,-0.0726395975798795
0.5,-0.92,-0.15476953410984176
0.52,-0.92,-0.23445866263205364
0.54,-0.92,-0.31045023798574184
0.56,-0.92,-0.38154582763241196
0.5800000000000001,-0.92,-0.44662421165288957
0.6000000000000001,-0.92,-0.5046590650552296
0.6200000000000001,-0.92,-0.554735143532936
0.6400000000000001,-0.92,-0.5960627174144155
0.6600000000000001,-0.92,-0.6279900261716613
0.6799999999999999,-0.92,-0.6500135570731225
0.7,-0.92,-0.661785985880263
0.72,-0.92,-0.663121654358286
0.74,-0.92,-0.6539994982174041
0.76,-0.92,-0.6345633793092705
0.78,-0.92,-0.6051198168396412
0.8,-0.92,-0.5661331533773938
0.8200000000000001,-0.92,-0.518218231894832
0.8400000000000001,-0.92,-0.4621306993267222
0.8600000000000001,-0.92,-0.3987550895667316
0.8800000000000001,-0.92,-0.3290908738395295
0.9000000000000001,-0.92,-0.2542366984425186
0.9199999999999999,-0.92,-0.17537305843742743
0.94,-0.92,-0.09374368053799081
0.96,-0.92,-0.01063590879670971
0.98,-0.92,0.07263959757987942
1.0,-0.92,0.15476953410984168

-1.0,-0.9,0.19183858606955384
-0.98,-0.9,0.27788277153265906
-0.96,-0.9,0.3595445796895728
-0.94,-0.9,0.4355361550432612
-0.92,-0.9,0.5046590650552297
-0.9,-0.9,0.5658232001425644
-0.88,-0.9,0.6180639653572547
-0.86,-0.9,0.6605574926247445
-0.84,-0.9,0.6926336336356227
-0.8200000000000001,-0.9,0.71378652848479
-0.8,-0.9,0.7236825833843481
-0.78,-0.9,0.7221657316369142
-0.76,-0.9,0.7092598949006694
-0.74,-0.9,0.6851686059305171
-0.72,-0.9,0.6502717987449547
-0.7,-0.9,0.6051198168396411
-0.6799999999999999,-0.9,0.5504247339417093
-0.6599999999999999,-0.9,0.4870491241817187
-0.64,-0.9,0.41599245878433866
-0.62,-0.9,0.3383753438100796
-0.6,-0.9,0.25542184752830316
-0.5800000000000001,-0.9,0.16844019612938954
-0.56,-0.9,0.07880214221621962
-0.54,-0.9,-0.012078668553818058
-0.52,-0.9,-0.10276899150531522
-0.5,-0.9,-0.19183858606955384
-0.48,-0.9,-0.2778827715326591
-0.45999999999999996,-0.9,-0.3595445796895729
-0.43999999999999995,-0.9,-0.4355361550432612
-0.42000000000000004,-0.9,-0.5046590650552298
-0.4,-0.9,-0.5658232001425644
-0.38,-0.9,-0.6180639653572547
-0.36,-0.9,-0.6605574926247445
-0.33999999999999997,-0.9,-0.6926336336356227
-0.31999999999999995,-0.9,-0.71378652848479
-0.29999999999999993,-0.9,-0.7236825833843481
-0.28,-0.9,-0.7221657316369144
-0.26,-0.9,-0.7092598949006697
-0.24,-0.9,-0.6851686059305172
-0.21999999999999997,-0.9,-0.6502717987449547
-0.19999999999999996,-0.9,-0.6051198168396411
-0.17999999999999994,-0.9,-0.5504247339417095
-0.16000000000000003,-0.9,-0.48704912418171864
-0.14,-0.9,-0.4159924587843385
-0.12,-0.9,-0.33837534381007955
-0.09999999999999998,-0.9,-0.255421847528303
-0.07999999999999996,-0.9,-0.16844019612938943
-0.05999999999999994,-0.9,-0.07880214221621962
-0.040000000000000036,-0.9,0.012078668553818065
-0.020000000000000018,-0.9,0.10276899150531521
0.0,-0.9,0.19183858606955384
0.020000000000000018,-0.9,0.2778827715326591
0.040000000000000036,-0.9,0.35954457968957276
0.06000000000000005,-0.9,0.43553615504326115
0.08000000000000007,-0.9,0.5046590650552297
0.10000000000000009,-0.9,0.5658232001425643
0.1200000000000001,-0.9,0.6180639653572546
0.14000000000000012,-0.9,0.6605574926247444
0.15999999999999992,-0.9,0.6926336336356225
0.17999999999999994,-0.9,0.71378652848479
0.19999999999999996,-0.9,0.7236825833843481
0.21999999999999997,-0.9,0.7221657316369144
0.24,-0.9,0.7092598949006695
0.26,-0.9,0.6851686059305169
0.28,-0.9,0.6502717987449547
0.30000000000000004,-0.9,0.6051198168396411
0.32000000000000006,-0.9,0.5504247339417094
0.3400000000000001,-0.9,0.4870491241817186
0.3600000000000001,-0.9,0.41599245878433855
0.3800000000000001,-0.9,0.3383753438100794
0.40000000000000013,-0.9,0.255421847528303
0.41999999999999993,-0.9,0.16844019612938932
0.43999999999999995,-0.9,0.07880214221621958
0.45999999999999996,-0.9,-0.0120786685538181
0.48,-0.9,-0.10276899150531524
0.5,-0.9,-0.19183858606955387
0.52,-0.9,-0.27788277153265906
0.54,-0.9,-0.35954457968957293
0.56,-0.9,-0.43553615504326115
0.5800000000000001,-0.9,-0.5046590650552296
0.6000000000000001,-0.9,-0.5658232001425644
0.6200000000000001,-0.9,-0.6180639653572547
0.6400000000000001,-0.9,-0.6605574926247443
0.6600000000000001,-0.9,-0.6926336336356224
0.6799999999999999,-0.9,-0.7137865284847901
0.7,-0.9,-0.7236825833843479
0.72,-0.9,-0.7221657316369143
0.74,-0.9,-0.7092598949006695
0.76,-0.9,-0.6851686059305171
0.78,-0.9,-0.6502717987449544
0.8,-0.9,-0.605119816839641
0.8200000000000001,-0.9,-0.5504247339417091
0.8400000000000001,-0.9,-0.48704912418171864
0.8600000000000001,-0.9,-0.4159924587843385
0.8800000000000001,-0.9,-0.3383753438100795
0.9000000000000001,-0.9,-0.25542184752830316
0.9199999999999999,-0.9,-0.16844019612938957
0.94,-0.9,-0.07880214221621969
0.96,-0.9,0.012078668553817989
0.98,-0.9,0.10276899150531513
1.0,-0.9,0.19183858606955384

-1.0,-0.88,0.22588222892813242
-0.98,-0.88,0.31692450312707304
-0.96,-0.88,0.40296868859017837
-0.94,-0.88,0.4826578171123904
-0.92,-0.88,0.5547351435329358
-0.9,-0.88,0.6180639653572547
-0.88,-0.88,0.671645549234373
-0.86,-0.88,0.7146348815784618
-0.84,-0.88,0.746353994937873
-0.8200000000000001,-0.88,0.7663026599468483
-0.8,-0.88,0.774166274241441
-0.78,-0.88,0.7698208239267311
-0.76,-0.88,0.7533348393500272
-0.74,-0.88,0.7249683143363536
-0.72,-0.88,0.6851686059305168
-0.7,-0.88,0.6345633793092701
-0.6799999999999999,-0.88,0.5739507091265277
-0.6599999999999999,-0.88,0.5042864933993256
-0.64,-0.88,0.4266693784250666
-0.62,-0.88,0.34232343247311214
-0.6,-0.88,0.2525788414969503
-0.5800000000000001,-0.88,0.15885093130709538
-0.56,-0.88,0.06261784703758078
-0.54,-0.88,-0.034602758085805194
-0.52,-0.88,-0.1312776570434923
-0.5,-0.88,-0.22588222892813248
-0.48,-0.88,-0.3169245031270731
-0.45999999999999996,-0.88,-0.4029686885901784
-0.43999999999999995,-0.88,-0.4826578171123906
-0.42000000000000004,-0.88,-0.554735143532936
-0.4,-0.88,-0.6180639653572547
-0.38,-0.88,-0.671645549234373
-0.36,-0.88,-0.714634881578462
-0.33999999999999997,-0.88,-0.7463539949378728
-0.31999999999999995,-0.88,-0.7663026599468481
-0.29999999999999993,-0.88,-0.7741662742414414
-0.28,-0.88,-0.7698208239267312
-0.26,-0.88,-0.7533348393500274
-0.24,-0.88,-0.7249683143363533
-0.21999999999999997,-0.88,-0.6851686059305168
-0.19999999999999996,-0.88,-0.6345633793092702
-0.17999999999999994,-0.88,-0.5739507091265277
-0.16000000000000003,-0.88,-0.5042864933993254
-0.14,-0.88,-0.42666937842506664
-0.12,-0.88,-0.3423234324731119
-0.09999999999999998,-0.88,-0.25257884149695015
-0.07999999999999996,-0.88,-0.15885093130709535
-0.05999999999999994,-0.88,-0.06261784703758075
-0.040000000000000036,-0.88,0.034602758085805194
-0.020000000000000018,-0.88,0.1312776570434923
0.0,-0.88,0.22588222892813245
0.020000000000000018,-0.88,0.316924503127073
0.040000000000000036,-0.88,0.4029686885901784
0.06000000000000005,-0.88,0.48265781711239036
0.08000000000000007,-0.88,0.5547351435329357
0.10000000000000009,-0.88,0.6180639653572546
0.1200000000000001,-0.88,0.6716455492343729
0.14000000000000012,-0.88,0.7146348815784618
0.15999999999999992,-0.88,0.7463539949378729
0.17999999999999994,-0.88,0.7663026599468482
0.19999999999999996,-0.88,0.7741662742414412
0.21999999999999997,-0.88,0.7698208239267313
0.24,-0.88,0.753334839350027
0.26,-0.88,0.7249683143363536
0.28,-0.88,0.6851686059305168
0.30000000000000004,-0.88,0.6345633793092703
0.32000000000000006,-0.88,0.5739507091265276
0.3400000000000001,-0.88,0.5042864933993255
0.3600000000000001,-0.88,0.4266693784250664
0.3800000000000001,-0.88,0.3423234324731119
0.40000000000000013,-0.88,0.25257884149695004
0.41999999999999993,-0.88,0.15885093130709524
0.43999999999999995,-0.88,0.06261784703758065
0.45999999999999996,-0.88,-0.03460275808580522
0.48,-0.88,-0.1312776570434923
0.5,-0.88,-0.22588222892813245
0.52,-0.88,-0.3169245031270731
0.54,-0.88,-0.4029686885901784
0.56,-0.88,-0.4826578171123905
0.5800000000000001,-0.88,-0.554735143532936
0.6000000000000001,-0.88,-0.6180639653572546
0.6200000000000001,-0.88,-0.6716455492343728
0.6400000000000001,-0.88,-0.7146348815784617
0.6600000000000001,-0.88,-0.7463539949378729
0.6799999999999999,-0.88,-0.766302659946848
0.7,-0.88,-0.7741662742414411
0.72,-0.88,-0.7698208239267313
0.74,-0.88,-0.7533348393500271
0.76,-0.88,-0.7249683143363533
0.78,-0.88,-0.6851686059305168
0.8,-0.88,-0.6345633793092699
0.8200000000000001,-0.88,-0.5739507091265277
0.8400000000000001,-0.88,-0.5042864933993254
0.8600000000000001,-0.88,-0.42666937842506647
0.8800000000000001,-0.88,-0.3423234324731121
0.9000000000000001,-0.88,-0.2525788414969503
0.9199999999999999,-0.88,-0.1588509313070954
0.94,-0.88,-0.0626178470375808
0.96,-0.88,0.034602758085805096
0.98,-0.88,0.13127765704349226
1.0,-0.88,0.22588222892813242

-1.0,-0.86,0.2563635741010114
-0.98,-0.86,0.35096814598565174
-0.96,-0.86,0.4400377405498905
-0.94,-0.86,0.5221676770798529
-0.92,-0.86,0.5960627174144155
-0.9,-0.86,0.6605574926247445
-0.88,-0.86,0.7146348815784619
-0.86,-0.86,0.7574420515475014
-0.84,-0.86,0.7883039078896876
-0.8200000000000001,-0.86,0.8067337406945241
-0.8,-0.86,0.8124409004892312
-0.78,-0.86,0.8053353819545539
-0.76,-0.86,0.7855292433624149
-0.74,-0.86,0.7533348393500267
-0.72,-0.86,0.7092598949006687
-0.7,-0.86,0.6539994982174032
-0.6799999999999999,-0.86,0.5884251387668863
-0.6599999999999999,-0.86,0.5135709633698754
-0.64,-0.86,0.43061746708809895
-0.62,-0.86,0.34087287611193723
-0.6,-0.86,0.24575251625190433
-0.5800000000000001,-0.86,0.1467564924051416
-0.56,-0.86,0.0454460310050706
-0.54,-0.86,-0.056581141452093364
-0.52,-0.86,-0.15771599550862236
-0.5,-0.86,-0.2563635741010115
-0.48,-0.86,-0.35096814598565185
-0.45999999999999996,-0.86,-0.4400377405498907
-0.43999999999999995,-0.86,-0.5221676770798531
-0.42000000000000004,-0.86,-0.5960627174144155
-0.4,-0.86,-0.6605574926247444
-0.38,-0.86,-0.714634881578462
-0.36,-0.86,-0.7574420515475013
-0.33999999999999997,-0.86,-0.7883039078896874
-0.31999999999999995,-0.86,-0.8067337406945243
-0.29999999999999993,-0.86,-0.8124409004892313
-0.28,-0.86,-0.805335381954554
-0.26,-0.86,-0.7855292433624147
-0.24,-0.86,-0.7533348393500267
-0.21999999999999997,-0.86,-0.709259894900669
-0.19999999999999996,-0.86,-0.6539994982174033
-0.17999999999999994,-0.86,-0.5884251387668862
-0.16000000000000003,-0.86,-0.5135709633698755
-0.14,-0.86,-0.4306174670880988
-0.12,-0.86,-0.34087287611193706
-0.09999999999999998,-0.86,-0.24575251625190428
-0.07999999999999996,-0.86,-0.14675649240514155
-0.05999999999999994,-0.86,-0.04544603100507058
-0.040000000000000036,-0.86,0.0565811414520934
-0.020000000000000018,-0.86,0.15771599550862236
0.0,-0.86,0.25636357410101146
0.020000000000000018,-0.86,0.35096814598565174
0.040000000000000036,-0.86,0.4400377405498904
0.06000000000000005,-0.86,0.5221676770798529
0.08000000000000007,-0.86,0.5960627174144155
0.10000000000000009,-0.86,0.6605574926247444
0.1200000000000001,-0.86,0.7146348815784619
0.14000000000000012,-0.86,0.7574420515475013
0.15999999999999992,-0.86,0.7883039078896875
0.17999999999999994,-0.86,0.8067337406945243
0.19999999999999996,-0.86,0.8124409004892313
0.21999999999999997,-0.86,0.8053353819545536
0.24,-0.86,0.7855292433624149
0.26,-0.86,0.7533348393500267
0.28,-0.86,0.7092598949006689
0.30000000000000004,-0.86,0.6539994982174032
0.32000000000000006,-0.86,0.5884251387668862
0.3400000000000001,-0.86,0.5135709633698753
0.3600000000000001,-0.86,0.43061746708809884
0.3800000000000001,-0.86,0.3408728761119369