TITLE = "Solution" 
VARIABLES = "x", "y", "sol" 
ZONE STRANDID=1, SOLUTIONTIME= 0.6700000000000004, I= 101, J =101, DATAPACKING=POINT 
-1.0,-1.0,0.5620955408199998
-0.98,-1.0,0.5047520750449307
-0.96,-1.0,0.4394483675221283
-0.94,-1.0,0.3672142967297715
-0.92,-1.0,0.28918903711479804
-0.9,-1.0,0.20660309363136736
-0.88,-1.0,0.1207588959426639
-0.86,-1.0,0.03301025832707672
-0.84,-1.0,-0.055258970781700896
-0.8200000000000001,-1.0,-0.14265673291114214
-0.8,-1.0,-0.22780471314357323
-0.78,-1.0,-0.3093600769657905
-0.76,-1.0,-0.38603664757150497
-0.74,-1.0,-0.4566251896379015
-0.72,-1.0,-0.5200124796890421
-0.7,-1.0,-0.5751988622950885
-0.6799999999999999,-1.0,-0.6213140152355963
-0.6599999999999999,-1.0,-0.6576306750008363
-0.64,-1.0,-0.6835761061717901
-0.62,-1.0,-0.6987411337998419
-0.6,-1.0,-0.7028865963401492
-0.5800000000000001,-1.0,-0.6959471173720724
-0.56,-1.0,-0.6780321366243819
-0.54,-1.0,-0.6494241840453593
-0.52,-1.0,-0.6105744241367386
-0.5,-1.0,-0.5620955408200004
-0.48,-1.0,-0.504752075044931
-0.45999999999999996,-1.0,-0.43944836752212846
-0.43999999999999995,-1.0,-0.3672142967297716
-0.42000000000000004,-1.0,-0.28918903711479815
-0.4,-1.0,-0.20660309363136728
-0.38,-1.0,-0.1207588959426639
-0.36,-1.0,-0.0330102583270767
-0.33999999999999997,-1.0,0.05525897078170097
-0.31999999999999995,-1.0,0.14265673291114225
-0.29999999999999993,-1.0,0.2278047131435733
-0.28,-1.0,0.30936007696579065
-0.26,-1.0,0.386036647571505
-0.24,-1.0,0.45662518963790166
-0.21999999999999997,-1.0,0.5200124796890422
-0.19999999999999996,-1.0,0.5751988622950887
-0.17999999999999994,-1.0,0.6213140152355964
-0.16000000000000003,-1.0,0.657630675000836
-0.14,-1.0,0.6835761061717901
-0.12,-1.0,0.698741133799842
-0.09999999999999998,-1.0,0.7028865963401493
-0.07999999999999996,-1.0,0.6959471173720724
-0.05999999999999994,-1.0,0.6780321366243816
-0.040000000000000036,-1.0,0.6494241840453592
-0.020000000000000018,-1.0,0.6105744241367387
0.0,-1.0,0.5620955408200001
0.020000000000000018,-1.0,0.5047520750449308
0.040000000000000036,-1.0,0.43944836752212846
0.06000000000000005,-1.0,0.36721429672977146
0.08000000000000007,-1.0,0.28918903711479804
0.10000000000000009,-1.0,0.20660309363136725
0.1200000000000001,-1.0,0.12075889594266381
0.14000000000000012,-1.0,0.033010258327076686
0.15999999999999992,-1.0,-0.055258970781700986
0.17999999999999994,-1.0,-0.14265673291114225
0.19999999999999996,-1.0,-0.22780471314357326
0.21999999999999997,-1.0,-0.3093600769657906
0.24,-1.0,-0.386036647571505
0.26,-1.0,-0.4566251896379016
0.28,-1.0,-0.5200124796890422
0.30000000000000004,-1.0,-0.5751988622950883
0.32000000000000006,-1.0,-0.621314015235596
0.3400000000000001,-1.0,-0.6576306750008362
0.3600000000000001,-1.0,-0.68357610617179
0.3800000000000001,-1.0,-0.698741133799842
0.40000000000000013,-1.0,-0.7028865963401492
0.41999999999999993,-1.0,-0.6959471173720723
0.43999999999999995,-1.0,-0.6780321366243817
0.45999999999999996,-1.0,-0.6494241840453591
0.48,-1.0,-0.6105744241367386
0.5,-1.0,-0.56209554082
0.52,-1.0,-0.5047520750449309
0.54,-1.0,-0.43944836752212824
0.56,-1.0,-0.36721429672977124
0.5800000000000001,-1.0,-0.2891890371147981
0.6000000000000001,-1.0,-0.20660309363136725
0.6200000000000001,-1.0,-0.12075889594266374
0.6400000000000001,-1.0,-0.033010258327076665
0.6600000000000001,-1.0,0.05525897078170105
0.6799999999999999,-1.0,0.14265673291114234
0.7,-1.0,0.22780471314357328
0.72,-1.0,0.3093600769657906
0.74,-1.0,0.3860366475715049
0.76,-1.0,0.4566251896379016
0.78,-1.0,0.5200124796890421
0.8,-1.0,0.5751988622950887
0.8200000000000001,-1.0,0.6213140152355962
0.8400000000000001,-1.0,0.6576306750008364
0.8600000000000001,-1.0,0.6835761061717899
0.8800000000000001,-1.0,0.6987411337998419
0.9000000000000001,-1.0,0.7028865963401494
0.9199999999999999,-1.0,0.6959471173720724
0.94,-1.0,0.678032136624382
0.96,-1.0,0.6494241840453592
0.98,-1.0,0.6105744241367387
1.0,-1.0,0.5620955408199998

-1.0,-0.98,0.5047520750449307
-0.98,-0.98,0.4486906405179767
-0.96,-0.98,0.38555308655525755
-0.94,-0.98,0.3163351300993117
-0.92,-0.98,0.24212837967225304
-0.9,-0.98,0.16410312005727962
-0.88,-0.98,0.08348985620855057
-0.86,-0.98,0.0015599074529901256
-0.84,-0.98,-0.08039464197494763
-0.8200000000000001,-0.98,-0.16108131987350932
-0.8,-0.98,-0.23922764913234926
-0.78,-0.98,-0.3136012154567015
-0.76,-0.98,-0.38302910327701595
-0.74,-0.98,-0.4464163933281566
-0.72,-0.98,-0.5027634301802851
-0.7,-0.98,-0.5511815874021552
-0.6799999999999999,-0.98,-0.5909072817307726
-0.6599999999999999,-0.98,-0.6213140152355958
-0.64,-0.98,-0.6419222555651514
-0.62,-0.98,-0.6524069984586759
-0.6,-0.98,-0.652602893257457
-0.5800000000000001,-0.98,-0.6425068505834964
-0.56,-0.98,-0.6222780910608458
-0.54,-0.98,-0.5922356343112527
-0.52,-0.98,-0.552853267824152
-0.5,-0.98,-0.504752075044931
-0.48,-0.98,-0.44869064051797686
-0.45999999999999996,-0.98,-0.38555308655525766
-0.43999999999999995,-0.98,-0.31633513009931175
-0.42000000000000004,-0.98,-0.24212837967225295
-0.4,-0.98,-0.16410312005727964
-0.38,-0.98,-0.0834898562085506
-0.36,-0.98,-0.0015599074529900909
-0.33999999999999997,-0.98,0.08039464197494772
-0.31999999999999995,-0.98,0.16108131987350938
-0.29999999999999993,-0.98,0.2392276491323494
-0.28,-0.98,0.31360121545670155
-0.26,-0.98,0.38302910327701606
-0.24,-0.98,0.4464163933281567
-0.21999999999999997,-0.98,0.5027634301802851
-0.19999999999999996,-0.98,0.5511815874021552
-0.17999999999999994,-0.98,0.5909072817307724
-0.16000000000000003,-0.98,0.6213140152355958
-0.14,-0.98,0.6419222555651514
-0.12,-0.98,0.652406998458676
-0.09999999999999998,-0.98,0.6526028932574571
-0.07999999999999996,-0.98,0.6425068505834961
-0.05999999999999994,-0.98,0.6222780910608458
-0.040000000000000036,-0.98,0.5922356343112526
-0.020000000000000018,-0.98,0.5528532678241519
0.0,-0.98,0.5047520750449308
0.020000000000000018,-0.98,0.44869064051797686
0.040000000000000036,-0.98,0.38555308655525744
0.06000000000000005,-0.98,0.31633513009931163
0.08000000000000007,-0.98,0.24212837967225295
0.10000000000000009,-0.98,0.16410312005727956
0.1200000000000001,-0.98,0.08348985620855055
0.14000000000000012,-0.98,0.001559907452990037
0.15999999999999992,-0.98,-0.08039464197494774
0.17999999999999994,-0.98,-0.16108131987350935
0.19999999999999996,-0.98,-0.23922764913234934
0.21999999999999997,-0.98,-0.31360121545670155
0.24,-0.98,-0.38302910327701595
0.26,-0.98,-0.4464163933281566
0.28,-0.98,-0.5027634301802849
0.30000000000000004,-0.98,-0.5511815874021551
0.32000000000000006,-0.98,-0.5909072817307726
0.3400000000000001,-0.98,-0.6213140152355957
0.3600000000000001,-0.98,-0.6419222555651513
0.3800000000000001,-0.98,-0.652406998458676
0.40000000000000013,-0.98,-0.6526028932574569
0.41999999999999993,-0.98,-0.6425068505834962
0.43999999999999995,-0.98,-0.6222780910608456
0.45999999999999996,-0.98,-0.5922356343112527
0.48,-0.98,-0.5528532678241518
0.5,-0.98,-0.5047520750449309
0.52,-0.98,-0.44869064051797664
0.54,-0.98,-0.3855530865552572
0.56,-0.98,-0.31633513009931175
0.5800000000000001,-0.98,-0.24212837967225295
0.6000000000000001,-0.98,-0.16410312005727948
0.6200000000000001,-0.98,-0.08348985620855053
0.6400000000000001,-0.98,-0.001559907452989999
0.6600000000000001,-0.98,0.08039464197494782
0.6799999999999999,-0.98,0.16108131987350938
0.7,-0.98,0.23922764913234934
0.72,-0.98,0.3136012154567015
0.74,-0.98,0.383029103277016
0.76,-0.98,0.44641639332815664
0.78,-0.98,0.5027634301802851
0.8,-0.98,0.5511815874021552
0.8200000000000001,-0.98,0.5909072817307728
0.8400000000000001,-0.98,0.6213140152355957
0.8600000000000001,-0.98,0.6419222555651514
0.8800000000000001,-0.98,0.6524069984586762
0.9000000000000001,-0.98,0.6526028932574571
0.9199999999999999,-0.98,0.6425068505834965
0.94,-0.98,0.6222780910608456
0.96,-0.98,0.5922356343112527
0.98,-0.98,0.5528532678241516
1.0,-0.98,0.5047520750449307

-1.0,-0.96,0.4394483675221283
-0.98,-0.96,0.3855530865552576
-0.96,-0.96,0.3255774030951601
-0.94,-0.96,0.26046716949773907
-0.92,-0.96,0.19124921304179338
-0.9,-0.96,0.11901514224943631
-0.88,-0.96,0.0449041315676059
-0.86,-0.96,-0.02991504409347374
-0.84,-0.96,-0.10426244163881825
-0.8200000000000001,-0.96,-0.1769655581961548
-0.8,-0.96,-0.24687782218663773
-0.78,-0.96,-0.3128966754435748
-0.76,-0.96,-0.37398096121335317
-0.74,-0.96,-0.42916734381939947
-0.72,-0.96,-0.47758550104126957
-0.7,-0.96,-0.5184718496159691
-0.6799999999999999,-0.96,-0.5511815874021547
-0.6599999999999999,-0.96,-0.5751988622950879
-0.64,-0.96,-0.590144907522482
-0.62,-0.96,-0.5957840150227667
-0.6,-0.96,-0.592027252702023
-0.5800000000000001,-0.96,-0.5789338669462304
-0.56,-0.96,-0.5567103482703671
-0.54,-0.96,-0.5257071748396386
-0.52,-0.96,-0.486413285219445
-0.5,-0.96,-0.43944836752212846
-0.48,-0.96,-0.38555308655525766
-0.45999999999999996,-0.96,-0.32557740309516014
-0.43999999999999995,-0.96,-0.260467169497739
-0.42000000000000004,-0.96,-0.19124921304179335
-0.4,-0.96,-0.11901514224943638
-0.38,-0.96,-0.04490413156760589
-0.36,-0.96,0.02991504409347383
-0.33999999999999997,-0.96,0.1042624416388183
-0.31999999999999995,-0.96,0.17696555819615492
-0.29999999999999993,-0.96,0.24687782218663779
-0.28,-0.96,0.31289667544357497
-0.26,-0.96,0.37398096121335334
-0.24,-0.96,0.4291673438193996
-0.21999999999999997,-0.96,0.4775855010412696
-0.19999999999999996,-0.96,0.5184718496159691
-0.17999999999999994,-0.96,0.5511815874021548
-0.16000000000000003,-0.96,0.5751988622950879
-0.14,-0.96,0.590144907522482
-0.12,-0.96,0.5957840150227668
-0.09999999999999998,-0.96,0.5920272527020227
-0.07999999999999996,-0.96,0.5789338669462304
-0.05999999999999994,-0.96,0.5567103482703671
-0.040000000000000036,-0.96,0.5257071748396385
-0.020000000000000018,-0.96,0.4864132852194448
0.0,-0.96,0.4394483675221285
0.020000000000000018,-0.96,0.3855530865552575
0.040000000000000036,-0.96,0.32557740309516003
0.06000000000000005,-0.96,0.260467169497739
0.08000000000000007,-0.96,0.19124921304179335
0.10000000000000009,-0.96,0.11901514224943632
0.1200000000000001,-0.96,0.04490413156760581
0.14000000000000012,-0.96,-0.02991504409347386
0.15999999999999992,-0.96,-0.10426244163881829
0.17999999999999994,-0.96,-0.1769655581961549
0.19999999999999996,-0.96,-0.24687782218663779
0.21999999999999997,-0.96,-0.31289667544357486
0.24,-0.96,-0.37398096121335317
0.26,-0.96,-0.42916734381939947
0.28,-0.96,-0.47758550104126957
0.30000000000000004,-0.96,-0.5184718496159691
0.32000000000000006,-0.96,-0.5511815874021547
0.3400000000000001,-0.96,-0.5751988622950879
0.3600000000000001,-0.96,-0.590144907522482
0.3800000000000001,-0.96,-0.5957840150227665
0.40000000000000013,-0.96,-0.5920272527020228
0.41999999999999993,-0.96,-0.5789338669462303
0.43999999999999995,-0.96,-0.5567103482703674
0.45999999999999996,-0.96,-0.5257071748396384
0.48,-0.96,-0.486413285219445
0.5,-0.96,-0.4394483675221283
0.52,-0.96,-0.3855530865552573
0.54,-0.96,-0.32557740309516014
0.56,-0.96,-0.260467169497739
0.5800000000000001,-0.96,-0.19124921304179324
0.6000000000000001,-0.96,-0.11901514224943628
0.6200000000000001,-0.96,-0.044904131567605796
0.6400000000000001,-0.96,0.0299150440934739
0.6600000000000001,-0.96,0.1042624416388183
0.6799999999999999,-0.96,0.1769655581961549
0.7,-0.96,0.2468778221866378
0.72,-0.96,0.31289667544357497
0.74,-0.96,0.3739809612133532
0.76,-0.96,0.4291673438193995
0.78,-0.96,0.47758550104126957
0.8,-0.96,0.5184718496159694
0.8200000000000001,-0.96,0.5511815874021547
0.8400000000000001,-0.96,0.5751988622950879
0.8600000000000001,-0.96,0.5901449075224823
0.8800000000000001,-0.96,0.5957840150227668
0.9000000000000001,-0.96,0.592027252702023
0.9199999999999999,-0.96,0.5789338669462303
0.94,-0.96,0.5567103482703673
0.96,-0.96,0.5257071748396382
0.98,-0.96,0.4864132852194447
1.0,-0.96,0.4394483675221283

-1.0,-0.94,0.36721429672977157
-0.98,-0.94,0.3163351300993117
-0.96,-0.94,0.26046716949773907
-0.94,-0.94,0.20049148603764178
-0.92,-0.94,0.13735393207492239
-0.9,-0.94,0.07205022455211967
-0.88,-0.94,0.005610241947412029
-0.86,-0.94,-0.060918217524202456
-0.84,-0.94,-0.12648596031468096
-0.8200000000000001,-0.94,-0.1900589439519468
-0.8,-0.94,-0.2506345845073804
-0.78,-0.94,-0.30725756794328946
-0.76,-0.94,-0.3590349159859583
-0.74,-0.94,-0.4051500689264662
-0.72,-0.94,-0.44487576325508377
-0.7,-0.94,-0.4775855010412694
-0.6799999999999999,-0.94,-0.5027634301802847
-0.6599999999999999,-0.94,-0.5200124796890414
-0.64,-0.94,-0.5290606217527035
-0.62,-0.94,-0.5297651617658291
-0.6,-0.94,-0.5221149887115399
-0.5800000000000001,-0.94,-0.5062307503888939
-0.56,-0.94,-0.4823629507250232
-0.54,-0.94,-0.4508879991785594
-0.52,-0.94,-0.4123022745376148
-0.5,-0.94,-0.36721429672977157
-0.48,-0.94,-0.31633513009931175
-0.45999999999999996,-0.94,-0.26046716949773907
-0.43999999999999995,-0.94,-0.20049148603764178
-0.42000000000000004,-0.94,-0.13735393207492244
-0.4,-0.94,-0.07205022455211965
-0.38,-0.94,-0.005610241947411946
-0.36,-0.94,0.0609182175242025
-0.33999999999999997,-0.94,0.12648596031468107
-0.31999999999999995,-0.94,0.1900589439519469
-0.29999999999999993,-0.94,0.2506345845073806
-0.28,-0.94,0.3072575679432896
-0.26,-0.94,0.3590349159859585
-0.24,-0.94,0.40515006892646627
-0.21999999999999997,-0.94,0.4448757632550837
-0.19999999999999996,-0.94,0.47758550104126946
-0.17999999999999994,-0.94,0.5027634301802848
-0.16000000000000003,-0.94,0.5200124796890413
-0.14,-0.94,0.5290606217527036
-0.12,-0.94,0.5297651617658289
-0.09999999999999998,-0.94,0.5221149887115399
-0.07999999999999996,-0.94,0.5062307503888939
-0.05999999999999994,-0.94,0.482362950725023
-0.040000000000000036,-0.94,0.4508879991785592
-0.020000000000000018,-0.94,0.4123022745376148
0.0,-0.94,0.3672142967297715
0.020000000000000018,-0.94,0.3163351300993117
0.040000000000000036,-0.94,0.26046716949773907
0.06000000000000005,-0.94,0.20049148603764178
0.08000000000000007,-0.94,0.13735393207492239
0.10000000000000009,-0.94,0.07205022455211958
0.1200000000000001,-0.94,0.005610241947411929
0.14000000000000012,-0.94,-0.0609182175242025
0.15999999999999992,-0.94,-0.12648596031468107
0.17999999999999994,-0.94,-0.19005894395194686
0.19999999999999996,-0.94,-0.2506345845073805
0.21999999999999997,-0.94,-0.3072575679432894
0.24,-0.94,-0.35903491598595844
0.26,-0.94,-0.4051500689264662
0.28,-0.94,-0.44487576325508377
0.30000000000000004,-0.94,-0.4775855010412693
0.32000000000000006,-0.94,-0.5027634301802847
0.3400000000000001,-0.94,-0.5200124796890413
0.3600000000000001,-0.94,-0.5290606217527033
0.3800000000000001,-0.94,-0.529765161765829
0.40000000000000013,-0.94,-0.5221149887115398
0.41999999999999993,-0.94,-0.5062307503888939
0.43999999999999995,-0.94,-0.48236295072502305
0.45999999999999996,-0.94,-0.4508879991785594
0.48,-0.94,-0.4123022745376147
0.5,-0.94,-0.36721429672977135
0.52,-0.94,-0.3163351300993118
0.54,-0.94,-0.26046716949773907
0.56,-0.94,-0.20049148603764166
0.5800000000000001,-0.94,-0.13735393207492239
0.6000000000000001,-0.94,-0.07205022455211957
0.6200000000000001,-0.94,-0.0056102419474118904
0.6400000000000001,-0.94,0.06091821752420251
0.6600000000000001,-0.94,0.12648596031468104
0.6799999999999999,-0.94,0.1900589439519469
0.7,-0.94,0.2506345845073806
0.72,-0.94,0.3072575679432895
0.74,-0.94,0.3590349159859585
0.76,-0.94,0.4051500689264662
0.78,-0.94,0.44487576325508393
0.8,-0.94,0.4775855010412693
0.8200000000000001,-0.94,0.5027634301802847
0.8400000000000001,-0.94,0.5200124796890414
0.8600000000000001,-0.94,0.5290606217527036
0.8800000000000001,-0.94,0.5297651617658292
0.9000000000000001,-0.94,0.5221149887115398
0.9199999999999999,-0.94,0.506230750388894
0.94,-0.94,0.48236295072502294
0.96,-0.94,0.4508879991785592
0.98,-0.94,0.4123022745376146
1.0,-0.94,0.36721429672977157

-1.0,-0.92,0.28918903711479815
-0.98,-0.92,0.24212837967225304
-0.96,-0.92,0.19124921304179335
-0.94,-0.92,0.13735393207492239
-0.92,-0.92,0.08129249754796808
-0.9,-0.92,0.023949031772898095
-0.88,-0.92,-0.03377212453968868
-0.86,-0.92,-0.09096067427379521
-0.84,-0.92,-0.14671471983733106
-0.8200000000000001,-0.92,-0.20015498662590672
-0.8,-0.92,-0.25043868970859856
-0.78,-0.92,-0.296772825049764
-0.76,-0.92,-0.3384266756564025
-0.74,-0.92,-0.37474333542164284
-0.72,-0.92,-0.40515006892646604
-0.7,-0.92,-0.4291673438193992
-0.6799999999999999,-0.92,-0.4464163933281561
-0.6599999999999999,-0.92,-0.45662518963790055
-0.64,-0.92,-0.45963273393238846
-0.62,-0.92,-0.45539159544147667
-0.6,-0.92,-0.4439686594526999
-0.5800000000000001,-0.92,-0.4255440724903326
-0.56,-0.92,-0.40040840129708577
-0.54,-0.92,-0.3689580504229992
-0.52,-0.92,-0.3316890106888859
-0.5,-0.92,-0.2891890371147981
-0.48,-0.92,-0.24212837967225304
-0.45999999999999996,-0.92,-0.19124921304179338
-0.43999999999999995,-0.92,-0.13735393207492244
-0.42000000000000004,-0.92,-0.08129249754796808
-0.4,-0.92,-0.023949031772898033
-0.38,-0.92,0.03377212453968871
-0.36,-0.92,0.09096067427379527
-0.33999999999999997,-0.92,0.14671471983733117
-0.31999999999999995,-0.92,0.20015498662590683
-0.29999999999999993,-0.92,0.25043868970859867
-0.28,-0.92,0.2967728250497641
-0.26,-0.92,0.33842667565640255
-0.24,-0.92,0.37474333542164273
-0.21999999999999997,-0.92,0.40515006892646604
-0.19999999999999996,-0.92,0.4291673438193993
-0.17999999999999994,-0.92,0.446416393328156
-0.16000000000000003,-0.92,0.45662518963790066
-0.14,-0.92,0.4596327339323884
-0.12,-0.92,0.4553915954414766
-0.09999999999999998,-0.92,0.4439686594526999
-0.07999999999999996,-0.92,0.42554407249033244
-0.05999999999999994,-0.92,0.40040840129708555
-0.040000000000000036,-0.92,0.3689580504229992
-0.020000000000000018,-0.92,0.3316890106888859
0.0,-0.92,0.2891890371147981
0.020000000000000018,-0.92,0.242128379672253
0.040000000000000036,-0.92,0.19124921304179335
0.06000000000000005,-0.92,0.13735393207492239
0.08000000000000007,-0.92,0.08129249754796802
0.10000000000000009,-0.92,0.023949031772898012
0.1200000000000001,-0.92,-0.03377212453968871
0.14000000000000012,-0.92,-0.09096067427379532
0.15999999999999992,-0.92,-0.14671471983733114
0.17999999999999994,-0.92,-0.2001549866259068
0.19999999999999996,-0.92,-0.25043868970859856
0.21999999999999997,-0.92,-0.29677282504976416
0.24,-0.92,-0.3384266756564025
0.26,-0.92,-0.37474333542164273
0.28,-0.92,-0.40515006892646604
0.30000000000000004,-0.92,-0.42916734381939936
0.32000000000000006,-0.92,-0.44641639332815597
0.3400000000000001,-0.92,-0.4566251896379004
0.3600000000000001,-0.92,-0.45963273393238846
0.3800000000000001,-0.92,-0.45539159544147656
0.40000000000000013,-0.92,-0.4439686594526999
0.41999999999999993,-0.92,-0.4255440724903325
0.43999999999999995,-0.92,-0.40040840129708577
0.45999999999999996,-0.92,-0.3689580504229992
0.48,-0.92,-0.33168901068888573
0.5,-0.92,-0.28918903711479815
0.52,-0.92,-0.24212837967225304
0.54,-0.92,-0.19124921304179324
0.56,-0.92,-0.1373539320749224
0.5800000000000001,-0.92,-0.08129249754796801
0.6000000000000001,-0.92,-0.023949031772897984
0.6200000000000001,-0.92,0.033772124539688725
0.6400000000000001,-0.92,0.0909606742737953
0.6600000000000001,-0.92,0.14671471983733117
0.6799999999999999,-0.92,0.20015498662590686
0.7,-0.92,0.2504386897085986
0.72,-0.92,0.29677282504976416
0.74,-0.92,0.3384266756564025
0.76,-0.92,0.3747433354216429
0.78,-0.92,0.405150068926466
0.8,-0.92,0.4291673438193993
0.8200000000000001,-0.92,0.44641639332815614
0.8400000000000001,-0.92,0.45662518963790055
0.8600000000000001,-0.92,0.45963273393238857
0.8800000000000001,-0.92,0.4553915954414765
0.9000000000000001,-0.92,0.4439686594526999
0.9199999999999999,-0.92,0.42554407249033244
0.94,-0.92,0.40040840129708555
0.96,-0.92,0.368958050422999
0.98,-0.92,0.33168901068888595
1.0,-0.92,0.28918903711479815

-1.0,-0.9,0.20660309363136733
-0.98,-0.9,0.1641031200572796
-0.96,-0.9,0.11901514224943635
-0.94,-0.9,0.07205022455211967
-0.92,-0.9,0.023949031772898085
-0.9,-0.9,-0.024529851543840245
-0.88,-0.9,-0.07262188444830915
-0.86,-0.9,-0.11956862685281731
-0.84,-0.9,-0.16462970058502105
-0.8200000000000001,-0.9,-0.20709446559398292
-0.8,-0.9,-0.24629322716829027
-0.78,-0.9,-0.2816077974217116
-0.76,-0.9,-0.3124812444854485
-0.74,-0.9,-0.33842667565640244
-0.72,-0.9,-0.3590349159859582
-0.7,-0.9,-0.3739809612133528
-0.6799999999999999,-0.9,-0.3830291032770152
-0.6599999999999999,-0.9,-0.38603664757150324
-0.64,-0.9,-0.38295616332667365
-0.62,-0.9,-0.3738362316192592
-0.6,-0.9,-0.35882067922026917
-0.5800000000000001,-0.9,-0.33814631036089166
-0.56,-0.9,-0.3121391721883084
-0.54,-0.9,-0.28120941280741224
-0.52,-0.9,-0.2458448130001825
-0.5,-0.9,-0.20660309363136736
-0.48,-0.9,-0.16410312005727967
-0.45999999999999996,-0.9,-0.1190151422494364
-0.43999999999999995,-0.9,-0.07205022455211967
-0.42000000000000004,-0.9,-0.023949031772898036
-0.4,-0.9,0.02452985154384026
-0.38,-0.9,0.07262188444830918
-0.36,-0.9,0.11956862685281737
-0.33999999999999997,-0.9,0.16462970058502113
-0.31999999999999995,-0.9,0.207094465593983
-0.29999999999999993,-0.9,0.24629322716829039
-0.28,-0.9,0.28160779742171166
-0.26,-0.9,0.3124812444854484
-0.24,-0.9,0.3384266756564024
-0.21999999999999997,-0.9,0.3590349159859583
-0.19999999999999996,-0.9,0.3739809612133528
-0.17999999999999994,-0.9,0.3830291032770154
-0.16000000000000003,-0.9,0.3860366475715033
-0.14,-0.9,0.38295616332667365
-0.12,-0.9,0.3738362316192593
-0.09999999999999998,-0.9,0.3588206792202691
-0.07999999999999996,-0.9,0.33814631036089143
-0.05999999999999994,-0.9,0.3121391721883084
-0.040000000000000036,-0.9,0.28120941280741224
-0.020000000000000018,-0.9,0.2458448130001825
0.0,-0.9,0.20660309363136733
0.020000000000000018,-0.9,0.16410312005727962
0.040000000000000036,-0.9,0.11901514224943635
0.06000000000000005,-0.9,0.07205022455211961
0.08000000000000007,-0.9,0.02394903177289802
0.10000000000000009,-0.9,-0.024529851543840252
0.1200000000000001,-0.9,-0.07262188444830922
0.14000000000000012,-0.9,-0.11956862685281737
0.15999999999999992,-0.9,-0.16462970058502113
0.17999999999999994,-0.9,-0.20709446559398295
0.19999999999999996,-0.9,-0.24629322716829039
0.21999999999999997,-0.9,-0.2816077974217116
0.24,-0.9,-0.3124812444854484
0.26,-0.9,-0.3384266756564024
0.28,-0.9,-0.3590349159859584
0.30000000000000004,-0.9,-0.37398096121335267
0.32000000000000006,-0.9,-0.3830291032770151
0.3400000000000001,-0.9,-0.38603664757150336
0.3600000000000001,-0.9,-0.3829561633266736
0.3800000000000001,-0.9,-0.3738362316192592
0.40000000000000013,-0.9,-0.3588206792202691
0.41999999999999993,-0.9,-0.33814631036089154
0.43999999999999995,-0.9,-0.3121391721883084
0.45999999999999996,-0.9,-0.2812094128074122
0.48,-0.9,-0.24584481300018254
0.5,-0.9,-0.20660309363136733
0.52,-0.9,-0.16410312005727953
0.54,-0.9,-0.11901514224943635
0.56,-0.9,-0.0720502245521196
0.5800000000000001,-0.9,-0.023949031772898005
0.6000000000000001,-0.9,0.024529851543840273
0.6200000000000001,-0.9,0.07262188444830922
0.6400000000000001,-0.9,0.1195686268528174
0.6600000000000001,-0.9,0.16462970058502116
0.6799999999999999,-0.9,0.20709446559398295
0.7,-0.9,0.2462932271682904
0.72,-0.9,0.2816077974217116
0.74,-0.9,0.3124812444854485
0.76,-0.9,0.33842667565640233
0.78,-0.9,0.3590349159859582
0.8,-0.9,0.37398096121335284
0.8200000000000001,-0.9,0.3830291032770152
0.8400000000000001,-0.9,0.38603664757150336
0.8600000000000001,-0.9,0.3829561633266735
0.8800000000000001,-0.9,0.37383623161925916
0.9000000000000001,-0.9,0.35882067922026906
0.9199999999999999,-0.9,0.33814631036089143
0.94,-0.9,0.3121391721883083
0.96,-0.9,0.2812094128074123
0.98,-0.9,0.24584481300018257
1.0,-0.9,0.20660309363136733

-1.0,-0.88,0.12075889594266388
-0.98,-0.88,0.08348985620855061
-0.96,-0.88,0.04490413156760589
-0.94,-0.88,0.0056102419474120015
-0.92,-0.88,-0.03377212453968868
-0.9,-0.88,-0.07262188444830914
-0.88,-0.88,-0.11032635385696889
-0.86,-0.88,-0.14629091075953504
-0.84,-0.88,-0.17994837260946925
-0.8200000000000001,-0.88,-0.2107679411274046
-0.8,-0.88,-0.23826357330709594
-0.78,-0.88,-0.2620016466039747
-0.76,-0.88,-0.2816077974217115
-0.74,-0.88,-0.2967728250497639
-0.72,-0.88,-0.30725756794328907
-0.7,-0.88,-0.31289667544357425
-0.6799999999999999,-0.88,-0.31360121545670017
-0.6599999999999999,-0.88,-0.3093600769657885
-0.64,-0.88,-0.30024014525837406
-0.62,-0.88,-0.2863852471054661
-0.6,-0.88,-0.26801388252745084
-0.5800000000000001,-0.88,-0.2454157789182449
-0.56,-0.88,-0.21894732187121796
-0.54,-0.88,-0.18902593476549165
-0.52,-0.88,-0.15612349574989362
-0.5,-0.88,-0.12075889594266392
-0.48,-0.88,-0.08348985620855064
-0.45999999999999996,-0.88,-0.04490413156760591
-0.43999999999999995,-0.88,-0.005610241947411963
-0.42000000000000004,-0.88,0.0337721245396887
-0.4,-0.88,0.07262188444830917
-0.38,-0.88,0.11032635385696891
-0.36,-0.88,0.1462909107595351
-0.33999999999999997,-0.88,0.17994837260946933
-0.31999999999999995,-0.88,0.2107679411274047
-0.29999999999999993,-0.88,0.23826357330709605
-0.28,-0.88,0.2620016466039746
-0.26,-0.88,0.2816077974217115
-0.24,-0.88,0.296772825049764
-0.21999999999999997,-0.88,0.3072575679432891
-0.19999999999999996,-0.88,0.3128966754435744
-0.17999999999999994,-0.88,0.31360121545670017
-0.16000000000000003,-0.88,0.30936007696578843
-0.14,-0.88,0.3002401452583741
-0.12,-0.88,0.28638524710546603
-0.09999999999999998,-0.88,0.2680138825274507
-0.07999999999999996,-0.88,0.24541577891824487
-0.05999999999999994,-0.88,0.21894732187121796
-0.040000000000000036,-0.88,0.18902593476549168
-0.020000000000000018,-0.88,0.15612349574989354
0.0,-0.88,0.1207588959426639
0.020000000000000018,-0.88,0.08348985620855061
0.040000000000000036,-0.88,0.04490413156760585
0.06000000000000005,-0.88,0.005610241947411953
0.08000000000000007,-0.88,-0.03377212453968869
0.10000000000000009,-0.88,-0.07262188444830922
0.1200000000000001,-0.88,-0.11032635385696891
0.14000000000000012,-0.88,-0.14629091075953513
0.15999999999999992,-0.88,-0.17994837260946928
0.17999999999999994,-0.88,-0.2107679411274047
0.19999999999999996,-0.88,-0.2382635733070959
0.21999999999999997,-0.88,-0.2620016466039746
0.24,-0.88,-0.2816077974217115
0.26,-0.88,-0.296772825049764
0.28,-0.88,-0.307257567943289
0.30000000000000004,-0.88,-0.31289667544357413
0.32000000000000006,-0.88,-0.3136012154567003
0.3400000000000001,-0.88,-0.3093600769657885
0.3600000000000001,-0.88,-0.30024014525837406
0.3800000000000001,-0.88,-0.2863852471054661
0.40000000000000013,-0.88,-0.2680138825274508
0.41999999999999993,-0.88,-0.2454157789182449
0.43999999999999995,-0.88,-0.21894732187121796
0.45999999999999996,-0.88,-0.1890259347654917
0.48,-0.88,-0.15612349574989356
0.5,-0.88,-0.12075889594266385
0.52,-0.88,-0.08348985620855061
0.54,-0.88,-0.04490413156760582
0.56,-0.88,-0.005610241947411953
0.5800000000000001,-0.88,0.03377212453968871
0.6000000000000001,-0.88,0.0726218844483092
0.6200000000000001,-0.88,0.11032635385696896
0.6400000000000001,-0.88,0.14629091075953513
0.6600000000000001,-0.88,0.1799483726094693
0.6799999999999999,-0.88,0.21076794112740477
0.7,-0.88,0.2382635733070959
0.72,-0.88,0.2620016466039747
0.74,-0.88,0.2816077974217115
0.76,-0.88,0.2967728250497639
0.78,-0.88,0.3072575679432891
0.8,-0.88,0.3128966754435742
0.8200000000000001,-0.88,0.3136012154567003
0.8400000000000001,-0.88,0.3093600769657884
0.8600000000000001,-0.88,0.300240145258374
0.8800000000000001,-0.88,0.2863852471054661
0.9000000000000001,-0.88,0.2680138825274507
0.9199999999999999,-0.88,0.2454157789182448
0.94,-0.88,0.21894732187121801
0.96,-0.88,0.18902593476549173
0.98,-0.88,0.15612349574989356
1.0,-0.88,0.12075889594266388

-1.0,-0.86,0.033010258327076734
-0.98,-0.86,0.001559907452990096
-0.96,-0.86,-0.029915044093473793
-0.94,-0.86,-0.060918217524202456
-0.92,-0.86,-0.0909606742737952
-0.9,-0.86,-0.11956862685281731
-0.88,-0.86,-0.14629091075953504
-0.86,-0.86,-0.17070609961362085
-0.84,-0.86,-0.19242915130191862
-0.8200000000000001,-0.86,-0.2111174803225822
-0.8,-0.86,-0.22647636056308898
-0.78,-0.86,-0.23826357330709574
-0.76,-0.86,-0.24629322716829005
-0.74,-0.86,-0.25043868970859806
-0.72,-0.86,-0.2506345845073799
-0.7,-0.86,-0.24687782218663662
-0.6799999999999999,-0.86,-0.23922764913234773
-0.6599999999999999,-0.86,-0.22780471314357095
-0.64,-0.86,-0.2127891607445809
-0.62,-0.86,-0.19441779616656557
-0.6,-0.86,-0.17298034680344165
-0.5800000000000001,-0.86,-0.148814894037777
-0.56,-0.86,-0.12230254149542799
-0.54,-0.86,-0.09386140481369924
-0.52,-0.86,-0.06394001770797293
-0.5,-0.86,-0.033010258327076755
-0.48,-0.86,-0.00155990745299011
-0.45999999999999996,-0.86,0.029915044093473814
-0.43999999999999995,-0.86,0.06091821752420247
-0.42000000000000004,-0.86,0.09096067427379523
-0.4,-0.86,0.11956862685281733
-0.38,-0.86,0.14629091075953507
-0.36,-0.86,0.17070609961362088
-0.33999999999999997,-0.86,0.1924291513019187
-0.31999999999999995,-0.86,0.21111748032258237
-0.29999999999999993,-0.86,0.2264763605630889
-0.28,-0.86,0.23826357330709577
-0.26,-0.86,0.24629322716829014
-0.24,-0.86,0.2504386897085981
-0.21999999999999997,-0.86,0.25063458450737996
-0.19999999999999996,-0.86,0.24687782218663668
-0.17999999999999994,-0.86,0.23922764913234762
-0.16000000000000003,-0.86,0.22780471314357098
-0.14,-0.86,0.21278916074458087
-0.12,-0.86,0.19441779616656546
-0.09999999999999998,-0.86,0.17298034680344165
-0.07999999999999996,-0.86,0.14881489403777698
-0.05999999999999994,-0.86,0.12230254149542802
-0.040000000000000036,-0.86,0.0938614048136992
-0.020000000000000018,-0.86,0.06394001770797292
0.0,-0.86,0.033010258327076734
0.020000000000000018,-0.86,0.0015599074529900475
0.040000000000000036,-0.86,-0.029915044093473835
0.06000000000000005,-0.86,-0.060918217524202456
0.08000000000000007,-0.86,-0.09096067427379528
0.10000000000000009,-0.86,-0.11956862685281733
0.1200000000000001,-0.86,-0.14629091075953513
0.14000000000000012,-0.86,-0.17070609961362088
0.15999999999999992,-0.86,-0.1924291513019187
0.17999999999999994,-0.86,-0.2111174803225822
0.19999999999999996,-0.86,-0.22647636056308892
0.21999999999999997,-0.86,-0.23826357330709572
0.24,-0.86,-0.2462932271682901
0.26,-0.86,-0.25043868970859806
0.28,-0.86,-0.25063458450737974
0.30000000000000004,-0.86,-0.2468778221866367
0.32000000000000006,-0.86,-0.2392276491323477