TITLE = "Solution" 
VARIABLES = "x", "y", "sol" 
ZONE STRANDID=1, SOLUTIONTIME= 0.9500000000000006, I= 101, J =101, DATAPACKING=POINT 
-1.0,-1.0,-0.16881419089468838
-0.98,-1.0,-0.13064852742151578
-0.96,-1.0,-0.09042245862525872
-0.94,-1.0,-0.048770373640722675
-0.92,-1.0,-0.006349150729863407
-0.9,-1.0,0.036172202080804655
-0.88,-1.0,0.07812309765643227
-0.86,-1.0,0.1188419453135417
-0.84,-1.0,0.15768658450031953
-0.8200000000000001,-1.0,0.19404441205212744
-0.8,-1.0,0.22734204330936053
-0.78,-1.0,0.25705435473605115
-0.76,-1.0,0.282712765431726
-0.74,-1.0,0.3039126269321221
-0.72,-1.0,0.3203196047571954
-0.7,-1.0,0.33167495106559053
-0.6799999999999999,-1.0,0.3377995852626694
-0.6599999999999999,-1.0,0.33859691820846516
-0.64,-1.0,0.33405437548611927
-0.62,-1.0,0.3242435957079461
-0.6,-1.0,0.3093193007317232
-0.5800000000000001,-1.0,0.2895168556045673
-0.56,-1.0,0.2651485567155407
-0.54,-1.0,0.23659870669504013
-0.52,-1.0,0.20431755373274219
-0.5,-1.0,0.16881419089468847
-0.48,-1.0,0.1306485274215159
-0.45999999999999996,-1.0,0.09042245862525874
-0.43999999999999995,-1.0,0.04877037364072277
-0.42000000000000004,-1.0,0.006349150729863508
-0.4,-1.0,-0.03617220208080456
-0.38,-1.0,-0.07812309765643224
-0.36,-1.0,-0.11884194531354161
-0.33999999999999997,-1.0,-0.15768658450031953
-0.31999999999999995,-1.0,-0.19404441205212758
-0.29999999999999993,-1.0,-0.22734204330936073
-0.28,-1.0,-0.25705435473605137
-0.26,-1.0,-0.28271276543172585
-0.24,-1.0,-0.30391262693212223
-0.21999999999999997,-1.0,-0.3203196047571954
-0.19999999999999996,-1.0,-0.3316749510655905
-0.17999999999999994,-1.0,-0.3377995852626694
-0.16000000000000003,-1.0,-0.3385969182084654
-0.14,-1.0,-0.3340543754861194
-0.12,-1.0,-0.3242435957079463
-0.09999999999999998,-1.0,-0.30931930073172337
-0.07999999999999996,-1.0,-0.28951685560456736
-0.05999999999999994,-1.0,-0.2651485567155408
-0.040000000000000036,-1.0,-0.23659870669504018
-0.020000000000000018,-1.0,-0.20431755373274219
0.0,-1.0,-0.16881419089468847
0.020000000000000018,-1.0,-0.1306485274215159
0.040000000000000036,-1.0,-0.09042245862525872
0.06000000000000005,-1.0,-0.04877037364072266
0.08000000000000007,-1.0,-0.006349150729863466
0.10000000000000009,-1.0,0.03617220208080462
0.1200000000000001,-1.0,0.07812309765643236
0.14000000000000012,-1.0,0.11884194531354164
0.15999999999999992,-1.0,0.1576865845003195
0.17999999999999994,-1.0,0.1940444120521276
0.19999999999999996,-1.0,0.22734204330936064
0.21999999999999997,-1.0,0.2570543547360512
0.24,-1.0,0.282712765431726
0.26,-1.0,0.30391262693212223
0.28,-1.0,0.32031960475719545
0.30000000000000004,-1.0,0.33167495106559064
0.32000000000000006,-1.0,0.3377995852626693
0.3400000000000001,-1.0,0.3385969182084655
0.3600000000000001,-1.0,0.3340543754861195
0.3800000000000001,-1.0,0.3242435957079462
0.40000000000000013,-1.0,0.3093193007317233
0.41999999999999993,-1.0,0.28951685560456725
0.43999999999999995,-1.0,0.26514855671554083
0.45999999999999996,-1.0,0.23659870669504013
0.48,-1.0,0.20431755373274213
0.5,-1.0,0.16881419089468847
0.52,-1.0,0.1306485274215158
0.54,-1.0,0.09042245862525866
0.56,-1.0,0.04877037364072272
0.5800000000000001,-1.0,0.006349150729863456
0.6000000000000001,-1.0,-0.03617220208080454
0.6200000000000001,-1.0,-0.07812309765643227
0.6400000000000001,-1.0,-0.11884194531354167
0.6600000000000001,-1.0,-0.15768658450031947
0.6799999999999999,-1.0,-0.19404441205212752
0.7,-1.0,-0.2273420433093607
0.72,-1.0,-0.25705435473605115
0.74,-1.0,-0.28271276543172585
0.76,-1.0,-0.3039126269321221
0.78,-1.0,-0.3203196047571954
0.8,-1.0,-0.3316749510655906
0.8200000000000001,-1.0,-0.3377995852626694
0.8400000000000001,-1.0,-0.3385969182084654
0.8600000000000001,-1.0,-0.33405437548611944
0.8800000000000001,-1.0,-0.3242435957079462
0.9000000000000001,-1.0,-0.30931930073172315
0.9199999999999999,-1.0,-0.2895168556045673
0.94,-1.0,-0.2651485567155407
0.96,-1.0,-0.23659870669504013
0.98,-1.0,-0.20431755373274213
1.0,-1.0,-0.16881419089468838

-1.0,-0.98,-0.13064852742151575
-0.98,-0.98,-0.08301768858155922
-0.96,-0.98,-0.03407761120030811
-0.94,-0.98,0.015399890466550083
-0.92,-0.98,0.06463452666130223
-0.9,-0.98,0.11284983775981089
-0.88,-0.98,0.15928543950362212
-0.86,-0.98,0.20320901471395178
-0.84,-0.98,0.24392786237106096
-0.8200000000000001,-0.98,0.28079982192313685
-0.8,-0.98,0.3132434005418021
-0.78,-0.98,0.3407469436113858
-0.76,-0.98,0.3628767038278599
-0.74,-0.98,0.3792836816529331
-0.72,-0.98,0.3897091292452502
-0.7,-0.98,0.39398863106842
-0.6799999999999999,-0.98,0.3920546968222413
-0.6599999999999999,-0.98,0.3839378258050526
-0.64,-0.98,0.3697660259215783
-0.62,-0.98,0.3497627949218036
-0.6,-0.98,0.324243595707946
-0.5800000000000001,-0.98,0.29361088129603835
-0.56,-0.98,0.25834774789145365
-0.54,-0.98,0.21901031617315675
-0.52,-0.98,0.17621896093838793
-0.5,-0.98,0.1306485274215159
-0.48,-0.98,0.08301768858155928
-0.45999999999999996,-0.98,0.03407761120030821
-0.43999999999999995,-0.98,-0.015399890466549992
-0.42000000000000004,-0.98,-0.06463452666130207
-0.4,-0.98,-0.11284983775981083
-0.38,-0.98,-0.15928543950362198
-0.36,-0.98,-0.20320901471395184
-0.33999999999999997,-0.98,-0.24392786237106104
-0.31999999999999995,-0.98,-0.2807998219231371
-0.29999999999999993,-0.98,-0.3132434005418023
-0.28,-0.98,-0.3407469436113857
-0.26,-0.98,-0.36287670382786
-0.24,-0.98,-0.3792836816529332
-0.21999999999999997,-0.98,-0.38970912924525014
-0.19999999999999996,-0.98,-0.39398863106842
-0.17999999999999994,-0.98,-0.3920546968222414
-0.16000000000000003,-0.98,-0.3839378258050528
-0.14,-0.98,-0.3697660259215784
-0.12,-0.98,-0.34976279492180373
-0.09999999999999998,-0.98,-0.32424359570794603
-0.07999999999999996,-0.98,-0.2936108812960384
-0.05999999999999994,-0.98,-0.2583477478914537
-0.040000000000000036,-0.98,-0.21901031617315675
-0.020000000000000018,-0.98,-0.17621896093838796
0.0,-0.98,-0.13064852742151586
0.020000000000000018,-0.98,-0.08301768858155925
0.040000000000000036,-0.98,-0.0340776112003081
0.06000000000000005,-0.98,0.015399890466550027
0.08000000000000007,-0.98,0.0646345266613022
0.10000000000000009,-0.98,0.11284983775981094
0.1200000000000001,-0.98,0.15928543950362198
0.14000000000000012,-0.98,0.2032090147139518
0.15999999999999992,-0.98,0.24392786237106115
0.17999999999999994,-0.98,0.280799821923137
0.19999999999999996,-0.98,0.31324340054180216
0.21999999999999997,-0.98,0.3407469436113858
0.24,-0.98,0.36287670382785997
0.26,-0.98,0.37928368165293325
0.28,-0.98,0.3897091292452503
0.30000000000000004,-0.98,0.39398863106841997
0.32000000000000006,-0.98,0.39205469682224164
0.3400000000000001,-0.98,0.3839378258050528
0.3600000000000001,-0.98,0.36976602592157837
0.3800000000000001,-0.98,0.3497627949218037
0.40000000000000013,-0.98,0.324243595707946
0.41999999999999993,-0.98,0.29361088129603846
0.43999999999999995,-0.98,0.25834774789145365
0.45999999999999996,-0.98,0.2190103161731567
0.48,-0.98,0.1762189609383879
0.5,-0.98,0.1306485274215158
0.52,-0.98,0.08301768858155921
0.54,-0.98,0.03407761120030815
0.56,-0.98,-0.015399890466550041
0.5800000000000001,-0.98,-0.0646345266613021
0.6000000000000001,-0.98,-0.11284983775981086
0.6200000000000001,-0.98,-0.15928543950362206
0.6400000000000001,-0.98,-0.20320901471395175
0.6600000000000001,-0.98,-0.24392786237106104
0.6799999999999999,-0.98,-0.280799821923137
0.7,-0.98,-0.3132434005418021
0.72,-0.98,-0.34074694361138563
0.74,-0.98,-0.36287670382785986
0.76,-0.98,-0.37928368165293314
0.78,-0.98,-0.3897091292452503
0.8,-0.98,-0.39398863106842
0.8200000000000001,-0.98,-0.3920546968222415
0.8400000000000001,-0.98,-0.3839378258050527
0.8600000000000001,-0.98,-0.36976602592157837
0.8800000000000001,-0.98,-0.3497627949218035
0.9000000000000001,-0.98,-0.324243595707946
0.9199999999999999,-0.98,-0.29361088129603835
0.94,-0.98,-0.2583477478914537
0.96,-0.98,-0.2190103161731567
0.98,-0.98,-0.17621896093838782
1.0,-0.98,-0.13064852742151575

-1.0,-0.96,-0.09042245862525865
-0.98,-0.96,-0.03407761120030812
-0.96,-0.96,0.022804660510249552
-0.94,-0.96,0.07932728910171682
-0.92,-0.96,0.13459887895622438
-0.9,-0.96,0.18774776408411972
-0.88,-0.96,0.23793575481733048
-0.86,-0.96,0.28437135656114143
-0.84,-0.96,0.32632225213676924
-0.8200000000000001,-0.96,0.3631268508607357
-0.8,-0.96,0.39420472222516223
-0.78,-0.96,0.419065749633611
-0.76,-0.96,0.4373178598325929
-0.74,-0.96,0.44867320614098805
-0.72,-0.96,0.4529527079641576
-0.7,-0.96,0.45008887500190087
-0.6799999999999999,-0.96,0.4401268716108032
-0.6599999999999999,-0.96,0.42322380453535446
-0.64,-0.96,0.39964624524073694
-0.62,-0.96,0.3697660259215782
-0.6,-0.96,0.3340543754861188
-0.5800000000000001,-0.96,0.2930744879948322
-0.56,-0.96,0.24747264075365424
-0.54,-0.96,0.19796800213480142
-0.52,-0.96,0.14534128986193046
-0.5,-0.96,0.09042245862525872
-0.48,-0.96,0.03407761120030821
-0.45999999999999996,-0.96,-0.022804660510249458
-0.43999999999999995,-0.96,-0.07932728910171666
-0.42000000000000004,-0.96,-0.13459887895622433
-0.4,-0.96,-0.18774776408411956
-0.38,-0.96,-0.23793575481733056
-0.36,-0.96,-0.28437135656114154
-0.33999999999999997,-0.96,-0.32632225213676946
-0.31999999999999995,-0.96,-0.3631268508607358
-0.29999999999999993,-0.96,-0.3942047222251621
-0.28,-0.96,-0.419065749633611
-0.26,-0.96,-0.4373178598325931
-0.24,-0.96,-0.44867320614098805
-0.21999999999999997,-0.96,-0.4529527079641576
-0.19999999999999996,-0.96,-0.4500888750019009
-0.17999999999999994,-0.96,-0.44012687161080344
-0.16000000000000003,-0.96,-0.4232238045353546
-0.14,-0.96,-0.399646245240737
-0.12,-0.96,-0.3697660259215782
-0.09999999999999998,-0.96,-0.3340543754861188
-0.07999999999999996,-0.96,-0.2930744879948323
-0.05999999999999994,-0.96,-0.24747264075365433
-0.040000000000000036,-0.96,-0.1979680021348014
-0.020000000000000018,-0.96,-0.14534128986193037
0.0,-0.96,-0.09042245862525874
0.020000000000000018,-0.96,-0.03407761120030811
0.040000000000000036,-0.96,0.022804660510249486
0.06000000000000005,-0.96,0.07932728910171677
0.08000000000000007,-0.96,0.1345988789562245
0.10000000000000009,-0.96,0.18774776408411956
0.1200000000000001,-0.96,0.23793575481733048
0.14000000000000012,-0.96,0.28437135656114165
0.15999999999999992,-0.96,0.32632225213676946
0.17999999999999994,-0.96,0.3631268508607359
0.19999999999999996,-0.96,0.3942047222251623
0.21999999999999997,-0.96,0.419065749633611
0.24,-0.96,0.43731785983259314
0.26,-0.96,0.4486732061409881
0.28,-0.96,0.4529527079641576
0.30000000000000004,-0.96,0.4500888750019012
0.32000000000000006,-0.96,0.4401268716108034
0.3400000000000001,-0.96,0.42322380453535446
0.3600000000000001,-0.96,0.39964624524073694
0.3800000000000001,-0.96,0.36976602592157815
0.40000000000000013,-0.96,0.334054375486119
0.41999999999999993,-0.96,0.2930744879948322
0.43999999999999995,-0.96,0.2474726407536542
0.45999999999999996,-0.96,0.19796800213480134
0.48,-0.96,0.1453412898619303
0.5,-0.96,0.09042245862525866
0.52,-0.96,0.03407761120030817
0.54,-0.96,-0.022804660510249514
0.56,-0.96,-0.07932728910171669
0.5800000000000001,-0.96,-0.13459887895622435
0.6000000000000001,-0.96,-0.18774776408411964
0.6200000000000001,-0.96,-0.23793575481733048
0.6400000000000001,-0.96,-0.2843713565611416
0.6600000000000001,-0.96,-0.32632225213676946
0.6799999999999999,-0.96,-0.3631268508607357
0.7,-0.96,-0.394204722225162
0.72,-0.96,-0.4190657496336109
0.74,-0.96,-0.437317859832593
0.76,-0.96,-0.4486732061409881
0.78,-0.96,-0.45295270796415765
0.8,-0.96,-0.450088875001901
0.8200000000000001,-0.96,-0.4401268716108033
0.8400000000000001,-0.96,-0.42322380453535446
0.8600000000000001,-0.96,-0.39964624524073683
0.8800000000000001,-0.96,-0.36976602592157826
0.9000000000000001,-0.96,-0.3340543754861189
0.9199999999999999,-0.96,-0.29307448799483227
0.94,-0.96,-0.2474726407536542
0.96,-0.96,-0.19796800213480123
0.98,-0.96,-0.14534128986193032
1.0,-0.96,-0.09042245862525865

-1.0,-0.94,-0.04877037364072268
-0.98,-0.94,0.01539989046655009
-0.96,-0.94,0.07932728910171682
-0.94,-0.94,0.14200364899992385
-0.92,-0.94,0.20244052652453431
-0.9,-0.94,0.25968479601374406
-0.88,-0.94,0.3128336811416391
-0.86,-0.94,0.36104899224014797
-0.84,-0.94,0.4035703450508163
-0.8200000000000001,-0.94,0.4397271524387948
-0.8,-0.94,0.46894919995254475
-0.78,-0.94,0.49077563844636946
-0.76,-0.94,0.5048622519467391
-0.74,-0.94,0.5109868861438175
-0.72,-0.94,0.5090529518976386
-0.7,-0.94,0.4990909485065407
-0.6799999999999999,-0.94,0.4812579827150139
-0.6599999999999999,-0.94,0.4558352910464875
-0.64,-0.94,0.4232238045353543
-0.62,-0.94,0.38393782580505226
-0.6,-0.94,0.33859691820846444
-0.5800000000000001,-0.94,0.28791613494373447
-0.56,-0.94,0.23269474223817993
-0.54,-0.94,0.17380361444242792
-0.52,-0.94,0.1121714998216722
-0.5,-0.94,0.048770373640722765
-0.48,-0.94,-0.015399890466549982
-0.45999999999999996,-0.94,-0.07932728910171663
-0.43999999999999995,-0.94,-0.1420036489999238
-0.42000000000000004,-0.94,-0.20244052652453415
-0.4,-0.94,-0.25968479601374417
-0.38,-0.94,-0.3128336811416392
-0.36,-0.94,-0.3610489922401482
-0.33999999999999997,-0.94,-0.4035703450508164
-0.31999999999999995,-0.94,-0.4397271524387947
-0.29999999999999993,-0.94,-0.4689491999525447
-0.28,-0.94,-0.4907756384463697
-0.26,-0.94,-0.5048622519467392
-0.24,-0.94,-0.5109868861438174
-0.21999999999999997,-0.94,-0.5090529518976386
-0.19999999999999996,-0.94,-0.49909094850654084
-0.17999999999999994,-0.94,-0.48125798271501397
-0.16000000000000003,-0.94,-0.4558352910464876
-0.14,-0.94,-0.4232238045353543
-0.12,-0.94,-0.3839378258050522
-0.09999999999999998,-0.94,-0.33859691820846455
-0.07999999999999996,-0.94,-0.2879161349437346
-0.05999999999999994,-0.94,-0.23269474223817982
-0.040000000000000036,-0.94,-0.1738036144424278
-0.020000000000000018,-0.94,-0.11217149982167222
0.0,-0.94,-0.04877037364072268
0.020000000000000018,-0.94,0.01539989046655002
0.040000000000000036,-0.94,0.07932728910171674
0.06000000000000005,-0.94,0.14200364899992396
0.08000000000000007,-0.94,0.20244052652453412
0.10000000000000009,-0.94,0.2596847960137441
0.1200000000000001,-0.94,0.3128336811416393
0.14000000000000012,-0.94,0.3610489922401482
0.15999999999999992,-0.94,0.40357034505081646
0.17999999999999994,-0.94,0.4397271524387948
0.19999999999999996,-0.94,0.46894919995254475
0.21999999999999997,-0.94,0.49077563844636973
0.24,-0.94,0.5048622519467391
0.26,-0.94,0.5109868861438174
0.28,-0.94,0.5090529518976388
0.30000000000000004,-0.94,0.4990909485065409
0.32000000000000006,-0.94,0.4812579827150139
0.3400000000000001,-0.94,0.45583529104648746
0.3600000000000001,-0.94,0.4232238045353542
0.3800000000000001,-0.94,0.38393782580505237
0.40000000000000013,-0.94,0.33859691820846444
0.41999999999999993,-0.94,0.2879161349437344
0.43999999999999995,-0.94,0.2326947422381798
0.45999999999999996,-0.94,0.17380361444242773
0.48,-0.94,0.11217149982167211
0.5,-0.94,0.04877037364072275
0.52,-0.94,-0.015399890466550038
0.54,-0.94,-0.07932728910171671
0.56,-0.94,-0.14200364899992385
0.5800000000000001,-0.94,-0.20244052652453423
0.6000000000000001,-0.94,-0.2596847960137441
0.6200000000000001,-0.94,-0.31283368114163923
0.6400000000000001,-0.94,-0.3610489922401482
0.6600000000000001,-0.94,-0.40357034505081624
0.6799999999999999,-0.94,-0.4397271524387945
0.7,-0.94,-0.4689491999525446
0.72,-0.94,-0.4907756384463695
0.74,-0.94,-0.5048622519467392
0.76,-0.94,-0.5109868861438176
0.78,-0.94,-0.5090529518976386
0.8,-0.94,-0.4990909485065408
0.8200000000000001,-0.94,-0.48125798271501397
0.8400000000000001,-0.94,-0.4558352910464874
0.8600000000000001,-0.94,-0.4232238045353544
0.8800000000000001,-0.94,-0.38393782580505237
0.9000000000000001,-0.94,-0.3385969182084645
0.9199999999999999,-0.94,-0.2879161349437344
0.94,-0.94,-0.23269474223817968
0.96,-0.94,-0.17380361444242776
0.98,-0.94,-0.11217149982167211
1.0,-0.94,-0.04877037364072268

-1.0,-0.92,-0.0063491507298634
-0.98,-0.92,0.06463452666130223
-0.96,-0.92,0.13459887895622438
-0.94,-0.92,0.20244052652453431
-0.92,-0.92,0.2670895660574435
-0.9,-0.92,0.32752644358205374
-0.88,-0.92,0.3827980334365616
-0.86,-0.92,0.4320326696313139
-0.84,-0.92,0.47445389254217374
-0.8200000000000001,-0.92,0.5093926941426256
-0.8,-0.92,0.5362980686600021
-0.78,-0.92,0.5547457022656729
-0.76,-0.92,0.5644446647575942
-0.74,-0.92,0.5652419977033895
-0.72,-0.92,0.5571251266862004
-0.7,-0.92,0.5402220596107514
-0.6799999999999999,-0.92,0.5147993679422249
-0.6599999999999999,-0.92,0.48125798271501363
-0.64,-0.92,0.44012687161080283
-0.62,-0.92,0.39205469682224053
-0.6,-0.92,0.3377995852626677
-0.5800000000000001,-0.92,0.2782171724518118
-0.56,-0.92,0.2142471086325081
-0.54,-0.92,0.14689823992505066
-0.52,-0.92,0.07723269822122025
-0.5,-0.92,0.006349150729863518
-0.48,-0.92,-0.06463452666130207
-0.45999999999999996,-0.92,-0.1345988789562243
-0.43999999999999995,-0.92,-0.20244052652453415
-0.42000000000000004,-0.92,-0.26708956605744366
-0.4,-0.92,-0.3275264435820538
-0.38,-0.92,-0.3827980334365617
-0.36,-0.92,-0.4320326696313141
-0.33999999999999997,-0.92,-0.4744538925421736
-0.31999999999999995,-0.92,-0.5093926941426254
-0.29999999999999993,-0.92,-0.5362980686600023
-0.28,-0.92,-0.5547457022656731
-0.26,-0.92,-0.5644446647575942
-0.24,-0.92,-0.5652419977033893
-0.21999999999999997,-0.92,-0.5571251266862004
-0.19999999999999996,-0.92,-0.5402220596107515
-0.17999999999999994,-0.92,-0.514799367942225
-0.16000000000000003,-0.92,-0.4812579827150136
-0.14,-0.92,-0.4401268716108028
-0.12,-0.92,-0.3920546968222407
-0.09999999999999998,-0.92,-0.33779958526266773
-0.07999999999999996,-0.92,-0.2782171724518117
-0.05999999999999994,-0.92,-0.21424710863250795
-0.040000000000000036,-0.92,-0.1468982399250507
-0.020000000000000018,-0.92,-0.0772326982212202
0.0,-0.92,-0.00634915072986349
0.020000000000000018,-0.92,0.06463452666130215
0.040000000000000036,-0.92,0.13459887895622447
0.06000000000000005,-0.92,0.2024405265245341
0.08000000000000007,-0.92,0.26708956605744366
0.10000000000000009,-0.92,0.3275264435820539
0.1200000000000001,-0.92,0.3827980334365618
0.14000000000000012,-0.92,0.4320326696313142
0.15999999999999992,-0.92,0.47445389254217374
0.17999999999999994,-0.92,0.5093926941426254
0.19999999999999996,-0.92,0.5362980686600023
0.21999999999999997,-0.92,0.554745702265673
0.24,-0.92,0.5644446647575941
0.26,-0.92,0.5652419977033898
0.28,-0.92,0.5571251266862004
0.30000000000000004,-0.92,0.5402220596107513
0.32000000000000006,-0.92,0.5147993679422248
0.3400000000000001,-0.92,0.4812579827150136
0.3600000000000001,-0.92,0.4401268716108029
0.3800000000000001,-0.92,0.3920546968222407
0.40000000000000013,-0.92,0.3377995852626676
0.41999999999999993,-0.92,0.27821717245181177
0.43999999999999995,-0.92,0.2142471086325079
0.45999999999999996,-0.92,0.14689823992505058
0.48,-0.92,0.07723269822122027
0.5,-0.92,0.006349150729863463
0.52,-0.92,-0.06463452666130215
0.54,-0.92,-0.13459887895622438
0.56,-0.92,-0.2024405265245342
0.5800000000000001,-0.92,-0.2670895660574436
0.6000000000000001,-0.92,-0.32752644358205385
0.6200000000000001,-0.92,-0.3827980334365617
0.6400000000000001,-0.92,-0.432032669631314
0.6600000000000001,-0.92,-0.47445389254217335
0.6799999999999999,-0.92,-0.5093926941426253
0.7,-0.92,-0.5362980686600022
0.72,-0.92,-0.5547457022656731
0.74,-0.92,-0.5644446647575944
0.76,-0.92,-0.5652419977033895
0.78,-0.92,-0.5571251266862003
0.8,-0.92,-0.5402220596107514
0.8200000000000001,-0.92,-0.5147993679422248
0.8400000000000001,-0.92,-0.48125798271501374
0.8600000000000001,-0.92,-0.440126871610803
0.8800000000000001,-0.92,-0.39205469682224064
0.9000000000000001,-0.92,-0.33779958526266757
0.9199999999999999,-0.92,-0.2782171724518116
0.94,-0.92,-0.21424710863250793
0.96,-0.92,-0.1468982399250506
0.98,-0.92,-0.07723269822122018
1.0,-0.92,-0.0063491507298634

-1.0,-0.9,0.03617220208080468
-0.98,-0.9,0.11284983775981086
-0.96,-0.9,0.1877477640841197
-0.94,-0.9,0.25968479601374395
-0.92,-0.9,0.32752644358205374
-0.9,-0.9,0.39020280348026115
-0.88,-0.9,0.44672543207172855
-0.86,-0.9,0.49620293373858754
-0.84,-0.9,0.5378550187231234
-0.8200000000000001,-0.9,0.571024808763381
-0.8,-0.9,0.5951891964557536
-0.78,-0.9,0.6099670949712271
-0.76,-0.9,0.6151254480223233
-0.74,-0.9,0.6105829052999767
-0.72,-0.9,0.5964111054165021
-0.7,-0.9,0.5728335461218843
-0.6799999999999999,-0.9,0.5402220596107509
-0.6599999999999999,-0.9,0.4990909485065401
-0.64,-0.9,0.45008887500189987
-0.62,-0.9,0.393988631068418
-0.6,-0.9,0.33167495106558764
-0.5800000000000001,-0.9,0.26413055895144116
-0.56,-0.9,0.19242067013868266
-0.54,-0.9,0.11767619241130046
-0.52,-0.9,0.04107589083324205
-0.5,-0.9,-0.03617220208080451
-0.48,-0.9,-0.11284983775981075
-0.45999999999999996,-0.9,-0.18774776408411953
-0.43999999999999995,-0.9,-0.25968479601374406
-0.42000000000000004,-0.9,-0.32752644358205374
-0.4,-0.9,-0.3902028034802612
-0.38,-0.9,-0.44672543207172877
-0.36,-0.9,-0.4962029337385873
-0.33999999999999997,-0.9,-0.5378550187231232
-0.31999999999999995,-0.9,-0.5710248087633811
-0.29999999999999993,-0.9,-0.5951891964557537
-0.28,-0.9,-0.609967094971227
-0.26,-0.9,-0.6151254480223232
-0.24,-0.9,-0.6105829052999767
-0.21999999999999997,-0.9,-0.5964111054165022
-0.19999999999999996,-0.9,-0.5728335461218845
-0.17999999999999994,-0.9,-0.5402220596107509
-0.16000000000000003,-0.9,-0.49909094850654007
-0.14,-0.9,-0.45008887500190004
-0.12,-0.9,-0.3939886310684181
-0.09999999999999998,-0.9,-0.33167495106558753
-0.07999999999999996,-0.9,-0.26413055895144105
-0.05999999999999994,-0.9,-0.19242067013868266
-0.040000000000000036,-0.9,-0.11767619241130044
-0.020000000000000018,-0.9,-0.041075890833242035
0.0,-0.9,0.036172202080804586
0.020000000000000018,-0.9,0.11284983775981089
0.040000000000000036,-0.9,0.1877477640841195
0.06000000000000005,-0.9,0.25968479601374406
0.08000000000000007,-0.9,0.3275264435820539
0.10000000000000009,-0.9,0.3902028034802613
0.1200000000000001,-0.9,0.4467254320717289
0.14000000000000012,-0.9,0.4962029337385874
0.15999999999999992,-0.9,0.5378550187231234
0.17999999999999994,-0.9,0.5710248087633812
0.19999999999999996,-0.9,0.5951891964557537
0.21999999999999997,-0.9,0.6099670949712269
0.24,-0.9,0.6151254480223236
0.26,-0.9,0.6105829052999768
0.28,-0.9,0.596411105416502
0.30000000000000004,-0.9,0.5728335461218842
0.32000000000000006,-0.9,0.5402220596107508
0.3400000000000001,-0.9,0.4990909485065401
0.3600000000000001,-0.9,0.4500888750019
0.3800000000000001,-0.9,0.39398863106841797
0.40000000000000013,-0.9,0.3316749510655876
0.41999999999999993,-0.9,0.26413055895144094
0.43999999999999995,-0.9,0.19242067013868258
0.45999999999999996,-0.9,0.11767619241130052
0.48,-0.9,0.041075890833242014
0.5,-0.9,-0.0361722020808046
0.52,-0.9,-0.11284983775981086
0.54,-0.9,-0.1877477640841196
0.56,-0.9,-0.25968479601374406
0.5800000000000001,-0.9,-0.32752644358205385
0.6000000000000001,-0.9,-0.39020280348026115
0.6200000000000001,-0.9,-0.44672543207172866
0.6400000000000001,-0.9,-0.49620293373858715
0.6600000000000001,-0.9,-0.5378550187231231
0.6799999999999999,-0.9,-0.571024808763381
0.7,-0.9,-0.595189196455754
0.72,-0.9,-0.6099670949712271
0.74,-0.9,-0.6151254480223233
0.76,-0.9,-0.6105829052999767
0.78,-0.9,-0.5964111054165021
0.8,-0.9,-0.5728335461218842
0.8200000000000001,-0.9,-0.540222059610751
0.8400000000000001,-0.9,-0.4990909485065403
0.8600000000000001,-0.9,-0.4500888750019001
0.8800000000000001,-0.9,-0.39398863106841786
0.9000000000000001,-0.9,-0.3316749510655874
0.9199999999999999,-0.9,-0.264130558951441
0.94,-0.9,-0.1924206701386826
0.96,-0.9,-0.11767619241130042
0.98,-0.9,-0.041075890833241924
1.0,-0.9,0.03617220208080468

-1.0,-0.88,0.07812309765643224
-0.98,-0.88,0.15928543950362206
-0.96,-0.88,0.23793575481733029
-0.94,-0.88,0.312833681141639
-0.92,-0.88,0.3827980334365616
-0.9,-0.88,0.44672543207172855
-0.88,-0.88,0.503607703782287
-0.86,-0.88,0.5525477811635381
-0.84,-0.88,0.5927738499597948
-0.8200000000000001,-0.88,0.6236515210362515
-0.8,-0.88,0.6446938350746062
-0.78,-0.88,0.6555689422124044
-0.76,-0.88,0.6561053355136094
-0.74,-0.88,0.6462945557354356
-0.72,-0.88,0.6262913247356604
-0.7,-0.88,0.5964111054165013
-0.6799999999999999,-0.88,0.5571251266861993
-0.6599999999999999,-0.88,0.509052951897637
-0.64,-0.88,0.45295270796415515
-0.62,-0.88,0.38970912924524675
-0.6,-0.88,0.32031960475719135
-0.5800000000000001,-0.88,0.2458784487524585
-0.56,-0.88,0.1675596427302336
-0.54,-0.88,0.08659832104687412
-0.52,-0.88,0.004271292109275782
-0.5,-0.88,-0.07812309765643215
-0.48,-0.88,-0.15928543950362192
-0.45999999999999996,-0.88,-0.23793575481733037
-0.43999999999999995,-0.88,-0.31283368114163906
-0.42000000000000004,-0.88,-0.3827980334365617
-0.4,-0.88,-0.4467254320717287
-0.38,-0.88,-0.5036077037822869
-0.36,-0.88,-0.552547781163538
-0.33999999999999997,-0.88,-0.5927738499597948
-0.31999999999999995,-0.88,-0.6236515210362515
-0.29999999999999993,-0.88,-0.6446938350746062
-0.28,-0.88,-0.6555689422124042
-0.26,-0.88,-0.6561053355136093
-0.24,-0.88,-0.6462945557354356
-0.21999999999999997,-0.88,-0.6262913247356606
-0.19999999999999996,-0.88,-0.5964111054165013
-0.17999999999999994,-0.88,-0.5571251266861993
-0.16000000000000003,-0.88,-0.5090529518976372
-0.14,-0.88,-0.4529527079641552
-0.12,-0.88,-0.3897091292452466
-0.09999999999999998,-0.88,-0.32031960475719123
-0.07999999999999996,-0.88,-0.2458784487524585
-0.05999999999999994,-0.88,-0.16755964273023358
-0.040000000000000036,-0.88,-0.08659832104687415
-0.020000000000000018,-0.88,-0.004271292109275723
0.0,-0.88,0.07812309765643226
0.020000000000000018,-0.88,0.15928543950362192
0.040000000000000036,-0.88,0.2379357548173304
0.06000000000000005,-0.88,0.31283368114163923
0.08000000000000007,-0.88,0.3827980334365618
0.10000000000000009,-0.88,0.4467254320717288
0.1200000000000001,-0.88,0.5036077037822869
0.14000000000000012,-0.88,0.5525477811635381
0.15999999999999992,-0.88,0.5927738499597949
0.17999999999999994,-0.88,0.6236515210362517
0.19999999999999996,-0.88,0.644693835074606
0.21999999999999997,-0.88,0.6555689422124045
0.24,-0.88,0.6561053355136094
0.26,-0.88,0.6462945557354356
0.28,-0.88,0.6262913247356604
0.30000000000000004,-0.88,0.5964111054165013
0.32000000000000006,-0.88,0.5571251266861993
0.3400000000000001,-0.88,0.5090529518976371
0.3600000000000001,-0.88,0.452952707964155
0.3800000000000001,-0.88,0.3897091292452467
0.40000000000000013,-0.88,0.32031960475719123
0.41999999999999993,-0.88,0.24587844875245846
0.43999999999999995,-0.88,0.16755964273023372
0.45999999999999996,-0.88,0.0865983210468741
0.48,-0.88,0.00427129210927572
0.5,-0.88,-0.07812309765643223
0.52,-0.88,-0.15928543950362198
0.54,-0.88,-0.2379357548173303
0.56,-0.88,-0.3128336811416391
0.5800000000000001,-0.88,-0.38279803343656166
0.6000000000000001,-0.88,-0.4467254320717286
0.6200000000000001,-0.88,-0.5036077037822866
0.6400000000000001,-0.88,-0.5525477811635379
0.6600000000000001,-0.88,-0.5927738499597947
0.6799999999999999,-0.88,-0.6236515210362517
0.7,-0.88,-0.6446938350746061
0.72,-0.88,-0.6555689422124044
0.74,-0.88,-0.6561053355136093
0.76,-0.88,-0.6462945557354356
0.78,-0.88,-0.6262913247356603
0.8,-0.88,-0.5964111054165014
0.8200000000000001,-0.88,-0.5571251266861995
0.8400000000000001,-0.88,-0.5090529518976372
0.8600000000000001,-0.88,-0.45295270796415493
0.8800000000000001,-0.88,-0.38970912924524653
0.9000000000000001,-0.88,-0.32031960475719123
0.9199999999999999,-0.88,-0.24587844875245846
0.94,-0.88,-0.16755964273023355
0.96,-0.88,-0.08659832104687398
0.98,-0.88,-0.00427129210927563
1.0,-0.88,0.07812309765643224

-1.0,-0.86,0.11884194531354164
-0.98,-0.86,0.20320901471395156
-0.96,-0.86,0.2843713565611414
-0.94,-0.86,0.361048992240148
-0.92,-0.86,0.43203266963131387
-0.9,-0.86,0.4962029337385873
-0.88,-0.86,0.552547781163538
-0.86,-0.86,0.6001786200034942
-0.84,-0.86,0.6383442834766663
-0.8200000000000001,-0.86,0.66644287627102
-0.8,-0.86,0.6840312667929024
-0.78,-0.86,0.6908320756169885
-0.76,-0.86,0.6867380499255161
-0.74,-0.86,0.6718137549492925
-0.72,-0.86,0.6462945557354345
-0.7,-0.86,0.610582905299975
-0.6799999999999999,-0.86,0.5652419977033871
-0.6599999999999999,-0.86,0.5109868861438142
-0.64,-0.86,0.4486732061409837
-0.62,-0.86,0.3792836816529283
-0.6,-0.86,0.3039126269321176
-0.5800000000000001,-0.86,0.2237486885359839
-0.56,-0.86,0.14005609966065008
-0.54,-0.86,0.054154742428209016
-0.52,-0.86,-0.03260066744279996
-0.5,-0.86,-0.11884194531354152
-0.48,-0.86,-0.2032090147139516
-0.45999999999999996,-0.86,-0.2843713565611413
-0.43999999999999995,-0.86,-0.3610489922401481
-0.42000000000000004,-0.86,-0.432032669631314
-0.4,-0.86,-0.49620293373858726
-0.38,-0.86,-0.552547781163538
-0.36,-0.86,-0.6001786200034943
-0.33999999999999997,-0.86,-0.6383442834766662
-0.31999999999999995,-0.86,-0.66644287627102
-0.29999999999999993,-0.86,-0.6840312667929022
-0.28,-0.86,-0.6908320756169885
-0.26,-0.86,-0.6867380499255161
-0.24,-0.86,-0.6718137549492926
-0.21999999999999997,-0.86,-0.6462945557354346
-0.19999999999999996,-0.86,-0.610582905299975
-0.17999999999999994,-0.86,-0.5652419977033872
-0.16000000000000003,-0.86,-0.5109868861438143
-0.14,-0.86,-0.44867320614098355
-0.12,-0.86,-0.3792836816529282
-0.09999999999999998,-0.86,-0.30391262693211757
-0.07999999999999996,-0.86,-0.22374868853598393
-0.05999999999999994,-0.86,-0.1400560996606501
-0.040000000000000036,-0.86,-0.05415474242820901
-0.020000000000000018,-0.86,0.03260066744280009
0.0,-0.86,0.11884194531354154
0.020000000000000018,-0.86,0.2032090147139517
0.040000000000000036,-0.86,0.2843713565611415
0.06000000000000005,-0.86,0.3610489922401482
0.08000000000000007,-0.86,0.43203266963131404
0.10000000000000009,-0.86,0.4962029337385871
0.1200000000000001,-0.86,0.5525477811635382
0.14000000000000012,-0.86,0.6001786200034944
0.15999999999999992,-0.86,0.6383442834766664
0.17999999999999994,-0.86,0.6664428762710198
0.19999999999999996,-0.86,0.6840312667929025
0.21999999999999997,-0.86,0.6908320756169885
0.24,-0.86,0.6867380499255162
0.26,-0.86,0.6718137549492925
0.28,-0.86,0.6462945557354345
0.30000000000000004,-0.86,0.6105829052999752
0.32000000000000006,-0.86,0.5652419977033871
0.3400000000000001,-0.86,0.5109868861438139
0.3600000000000001,-0.86,0.44867320614098366