TITLE = "Solution" 
VARIABLES = "x", "y", "sol" 
ZONE STRANDID=1, SOLUTIONTIME= 1.0, I= 101, J =101, DATAPACKING=POINT 
-1.0,-1.0,-0.27345289491224717
-0.98,-1.0,-0.27129663715944263
-0.96,-1.0,-0.2648618693738783
-0.94,-1.0,-0.2542500716874764
-0.92,-1.0,-0.23962859848893206
-0.9,-1.0,-0.22122803914503103
-0.88,-1.0,-0.19933858146858807
-0.86,-1.0,-0.17430543528328912
-0.84,-1.0,-0.14652338825855263
-0.8200000000000001,-1.0,-0.11643057987214933
-0.8,-1.0,-0.0845015916889052
-0.78,-1.0,-0.051239962925922894
-0.76,-1.0,-0.017170249338328638
-0.74,-1.0,0.017170249338340896
-0.72,-1.0,0.05123996292593487
-0.7,-1.0,0.08450159168891688
-0.6799999999999999,-1.0,0.11643057987216053
-0.6599999999999999,-1.0,0.14652338825856326
-0.64,-1.0,0.17430543528329873
-0.62,-1.0,0.19933858146859662
-0.6,-1.0,0.22122803914503808
-0.5800000000000001,-1.0,0.23962859848893775
-0.56,-1.0,0.2542500716874807
-0.54,-1.0,0.2648618693738813
-0.52,-1.0,0.27129663715944413
-0.5,-1.0,0.27345289491224706
-0.48,-1.0,0.2712966371594427
-0.45999999999999996,-1.0,0.26486186937387834
-0.43999999999999995,-1.0,0.2542500716874764
-0.42000000000000004,-1.0,0.23962859848893214
-0.4,-1.0,0.22122803914503106
-0.38,-1.0,0.19933858146858824
-0.36,-1.0,0.17430543528328918
-0.33999999999999997,-1.0,0.14652338825855274
-0.31999999999999995,-1.0,0.11643057987214948
-0.29999999999999993,-1.0,0.08450159168890521
-0.28,-1.0,0.05123996292592295
-0.26,-1.0,0.017170249338328673
-0.24,-1.0,-0.017170249338340896
-0.21999999999999997,-1.0,-0.05123996292593494
-0.19999999999999996,-1.0,-0.08450159168891688
-0.17999999999999994,-1.0,-0.11643057987216064
-0.16000000000000003,-1.0,-0.14652338825856315
-0.14,-1.0,-0.17430543528329873
-0.12,-1.0,-0.19933858146859668
-0.09999999999999998,-1.0,-0.22122803914503816
-0.07999999999999996,-1.0,-0.23962859848893778
-0.05999999999999994,-1.0,-0.25425007168748076
-0.040000000000000036,-1.0,-0.26486186937388145
-0.020000000000000018,-1.0,-0.2712966371594443
0.0,-1.0,-0.2734528949122473
0.020000000000000018,-1.0,-0.27129663715944274
0.040000000000000036,-1.0,-0.2648618693738784
0.06000000000000005,-1.0,-0.2542500716874765
0.08000000000000007,-1.0,-0.23962859848893212
0.10000000000000009,-1.0,-0.22122803914503109
0.1200000000000001,-1.0,-0.19933858146858824
0.14000000000000012,-1.0,-0.17430543528328918
0.15999999999999992,-1.0,-0.14652338825855263
0.17999999999999994,-1.0,-0.11643057987214941
0.19999999999999996,-1.0,-0.08450159168890528
0.21999999999999997,-1.0,-0.051239962925922915
0.24,-1.0,-0.017170249338328652
0.26,-1.0,0.01717024933834088
0.28,-1.0,0.051239962925934954
0.30000000000000004,-1.0,0.08450159168891686
0.32000000000000006,-1.0,0.11643057987216059
0.3400000000000001,-1.0,0.14652338825856323
0.3600000000000001,-1.0,0.17430543528329878
0.3800000000000001,-1.0,0.19933858146859673
0.40000000000000013,-1.0,0.22122803914503825
0.41999999999999993,-1.0,0.23962859848893772
0.43999999999999995,-1.0,0.25425007168748087
0.45999999999999996,-1.0,0.26486186937388145
0.48,-1.0,0.2712966371594442
0.5,-1.0,0.2734528949122472
0.52,-1.0,0.27129663715944263
0.54,-1.0,0.2648618693738783
0.56,-1.0,0.25425007168747643
0.5800000000000001,-1.0,0.23962859848893203
0.6000000000000001,-1.0,0.2212280391450311
0.6200000000000001,-1.0,0.19933858146858813
0.6400000000000001,-1.0,0.17430543528328907
0.6600000000000001,-1.0,0.1465233882585527
0.6799999999999999,-1.0,0.11643057987214939
0.7,-1.0,0.08450159168890527
0.72,-1.0,0.051239962925922915
0.74,-1.0,0.01717024933832864
0.76,-1.0,-0.01717024933834084
0.78,-1.0,-0.051239962925934954
0.8,-1.0,-0.08450159168891697
0.8200000000000001,-1.0,-0.11643057987216057
0.8400000000000001,-1.0,-0.1465233882585632
0.8600000000000001,-1.0,-0.17430543528329873
0.8800000000000001,-1.0,-0.1993385814685967
0.9000000000000001,-1.0,-0.2212280391450382
0.9199999999999999,-1.0,-0.23962859848893783
0.94,-1.0,-0.2542500716874808
0.96,-1.0,-0.2648618693738815
0.98,-1.0,-0.27129663715944413
1.0,-1.0,-0.27345289491224717

-1.0,-0.98,-0.2712966371594427
-0.98,-0.98,-0.25774447547656126
-0.96,-0.98,-0.2401275294463281
-0.94,-0.98,-0.21872362883149332
-0.92,-0.98,-0.19387032593082315
-0.9,-0.98,-0.16595957217770482
-0.88,-0.98,-0.13543153683190132
-0.86,-0.98,-0.10276766524737996
-0.84,-0.98,-0.06848308619147997
-0.8200000000000001,-0.98,-0.033118487956527595
-0.8,-0.98,0.0027684086175249686
-0.78,-0.98,0.03861164573391206
-0.76,-0.98,0.07384595413159625
-0.74,-0.98,0.10791566771919024
-0.72,-0.98,0.14028348676115773
-0.7,-0.98,0.17043895141560866
-0.6799999999999999,-0.98,0.1979064919909413
-0.6599999999999999,-0.98,0.2222529289639685
-0.64,-0.98,0.2430943044797697
-0.62,-0.98,0.26010193759642625
-0.6,-0.98,0.27300760777982114
-0.5800000000000001,-0.98,0.2816077849016886
-0.56,-0.98,0.28576683903132
-0.54,-0.98,0.2854191794005924
-0.52,-0.98,0.2805702888095641
-0.5,-0.98,0.27129663715944274
-0.48,-0.98,0.2577444754765613
-0.45999999999999996,-0.98,0.24012752944632812
-0.43999999999999995,-0.98,0.21872362883149335
-0.42000000000000004,-0.98,0.1938703259308232
-0.4,-0.98,0.165959572177705
-0.38,-0.98,0.13543153683190134
-0.36,-0.98,0.10276766524738007
-0.33999999999999997,-0.98,0.06848308619148008
-0.31999999999999995,-0.98,0.03311848795652765
-0.29999999999999993,-0.98,-0.002768408617524913
-0.28,-0.98,-0.03861164573391201
-0.26,-0.98,-0.07384595413159627
-0.24,-0.98,-0.10791566771919034
-0.21999999999999997,-0.98,-0.14028348676115782
-0.19999999999999996,-0.98,-0.17043895141560883
-0.17999999999999994,-0.98,-0.1979064919909411
-0.16000000000000003,-0.98,-0.2222529289639686
-0.14,-0.98,-0.24309430447976973
-0.12,-0.98,-0.26010193759642625
-0.09999999999999998,-0.98,-0.2730076077798212
-0.07999999999999996,-0.98,-0.2816077849016887
-0.05999999999999994,-0.98,-0.2857668390313201
-0.040000000000000036,-0.98,-0.28541917940059264
-0.020000000000000018,-0.98,-0.28057028880956425
0.0,-0.98,-0.27129663715944274
0.020000000000000018,-0.98,-0.2577444754765614
0.040000000000000036,-0.98,-0.24012752944632823
0.06000000000000005,-0.98,-0.21872362883149335
0.08000000000000007,-0.98,-0.1938703259308232
0.10000000000000009,-0.98,-0.16595957217770493
0.1200000000000001,-0.98,-0.13543153683190132
0.14000000000000012,-0.98,-0.10276766524737996
0.15999999999999992,-0.98,-0.06848308619148002
0.17999999999999994,-0.98,-0.033118487956527665
0.19999999999999996,-0.98,0.0027684086175249964
0.21999999999999997,-0.98,0.03861164573391205
0.24,-0.98,0.07384595413159624
0.26,-0.98,0.10791566771919037
0.28,-0.98,0.14028348676115773
0.30000000000000004,-0.98,0.17043895141560875
0.32000000000000006,-0.98,0.19790649199094126
0.3400000000000001,-0.98,0.22225292896396856
0.3600000000000001,-0.98,0.2430943044797698
0.3800000000000001,-0.98,0.26010193759642636
0.40000000000000013,-0.98,0.27300760777982114
0.41999999999999993,-0.98,0.2816077849016888
0.43999999999999995,-0.98,0.28576683903132016
0.45999999999999996,-0.98,0.28541917940059247
0.48,-0.98,0.2805702888095642
0.5,-0.98,0.2712966371594426
0.52,-0.98,0.2577444754765613
0.54,-0.98,0.24012752944632818
0.56,-0.98,0.21872362883149324
0.5800000000000001,-0.98,0.19387032593082323
0.6000000000000001,-0.98,0.16595957217770485
0.6200000000000001,-0.98,0.13543153683190126
0.6400000000000001,-0.98,0.10276766524738003
0.6600000000000001,-0.98,0.06848308619148002
0.6799999999999999,-0.98,0.03311848795652767
0.7,-0.98,-0.002768408617524941
0.72,-0.98,-0.03861164573391206
0.74,-0.98,-0.0738459541315962
0.76,-0.98,-0.10791566771919034
0.78,-0.98,-0.14028348676115782
0.8,-0.98,-0.17043895141560872
0.8200000000000001,-0.98,-0.19790649199094115
0.8400000000000001,-0.98,-0.22225292896396848
0.8600000000000001,-0.98,-0.2430943044797698
0.8800000000000001,-0.98,-0.26010193759642636
0.9000000000000001,-0.98,-0.2730076077798212
0.9199999999999999,-0.98,-0.2816077849016887
0.94,-0.98,-0.28576683903132016
0.96,-0.98,-0.2854191794005924
0.98,-0.98,-0.2805702888095641
1.0,-0.98,-0.2712966371594427

-1.0,-0.96,-0.2648618693738783
-0.98,-0.96,-0.24012752944632815
-0.96,-0.96,-0.21160623493417632
-0.94,-0.96,-0.17974778368967495
-0.92,-0.96,-0.1450546025202661
-0.9,-0.96,-0.1080738236176934
-0.88,-0.96,-0.06938865595649663
-0.86,-0.96,-0.02960918774009207
-0.84,-0.96,0.010637235054645186
-0.8200000000000001,-0.96,0.050715902298194455
-0.8,-0.96,0.08999474946628984
-0.78,-0.96,0.12785432567504426
-0.76,-0.96,0.16369756279143105
-0.74,-0.96,0.19695919155441322
-0.72,-0.96,0.22711465620886426
-0.7,-0.96,0.2536883870631823
-0.6799999999999999,-0.96,0.2762613005074168
-0.6599999999999999,-0.96,0.29447740821214774
-0.64,-0.96,0.308049431277096
-0.62,-0.96,0.31676333079099395
-0.6,-0.96,0.3204816833530764
-0.5800000000000001,-0.96,0.31914584832220333
-0.56,-0.96,0.3127768926148004
-0.54,-0.96,0.301475258467003
-0.52,-0.96,0.285419179400591
-0.5,-0.96,0.2648618693738783
-0.48,-0.96,0.2401275294463281
-0.45999999999999996,-0.96,0.21160623493417635
-0.43999999999999995,-0.96,0.17974778368967503
-0.42000000000000004,-0.96,0.14505460252026625
-0.4,-0.96,0.10807382361769341
-0.38,-0.96,0.06938865595649674
-0.36,-0.96,0.029609187740092174
-0.33999999999999997,-0.96,-0.010637235054645103
-0.31999999999999995,-0.96,-0.050715902298194414
-0.29999999999999993,-0.96,-0.08999474946628971
-0.28,-0.96,-0.12785432567504432
-0.26,-0.96,-0.16369756279143116
-0.24,-0.96,-0.19695919155441335
-0.21999999999999997,-0.96,-0.22711465620886445
-0.19999999999999996,-0.96,-0.25368838706318214
-0.17999999999999994,-0.96,-0.2762613005074168
-0.16000000000000003,-0.96,-0.29447740821214774
-0.14,-0.96,-0.308049431277096
-0.12,-0.96,-0.31676333079099395
-0.09999999999999998,-0.96,-0.3204816833530766
-0.07999999999999996,-0.96,-0.31914584832220344
-0.05999999999999994,-0.96,-0.31277689261480063
-0.040000000000000036,-0.96,-0.3014752584670031
-0.020000000000000018,-0.96,-0.285419179400591
0.0,-0.96,-0.2648618693738783
0.020000000000000018,-0.96,-0.2401275294463282
0.040000000000000036,-0.96,-0.21160623493417635
0.06000000000000005,-0.96,-0.17974778368967503
0.08000000000000007,-0.96,-0.1450546025202662
0.10000000000000009,-0.96,-0.1080738236176934
0.1200000000000001,-0.96,-0.06938865595649663
0.14000000000000012,-0.96,-0.029609187740092125
0.15999999999999992,-0.96,0.010637235054645144
0.17999999999999994,-0.96,0.05071590229819451
0.19999999999999996,-0.96,0.08999474946628974
0.21999999999999997,-0.96,0.12785432567504426
0.24,-0.96,0.16369756279143122
0.26,-0.96,0.19695919155441324
0.28,-0.96,0.22711465620886437
0.30000000000000004,-0.96,0.2536883870631823
0.32000000000000006,-0.96,0.2762613005074168
0.3400000000000001,-0.96,0.2944774082121478
0.3600000000000001,-0.96,0.3080494312770961
0.3800000000000001,-0.96,0.31676333079099384
0.40000000000000013,-0.96,0.32048168335307664
0.41999999999999993,-0.96,0.3191458483222035
0.43999999999999995,-0.96,0.31277689261480046
0.45999999999999996,-0.96,0.3014752584670031
0.48,-0.96,0.2854191794005909
0.5,-0.96,0.26486186937387834
0.52,-0.96,0.24012752944632818
0.54,-0.96,0.2116062349341763
0.56,-0.96,0.179747783689675
0.5800000000000001,-0.96,0.1450546025202661
0.6000000000000001,-0.96,0.10807382361769334
0.6200000000000001,-0.96,0.06938865595649668
0.6400000000000001,-0.96,0.02960918774009211
0.6600000000000001,-0.96,-0.010637235054645096
0.6799999999999999,-0.96,-0.05071590229819444
0.7,-0.96,-0.0899947494662898
0.72,-0.96,-0.12785432567504423
0.74,-0.96,-0.16369756279143116
0.76,-0.96,-0.19695919155441333
0.78,-0.96,-0.22711465620886426
0.8,-0.96,-0.25368838706318214
0.8200000000000001,-0.96,-0.2762613005074167
0.8400000000000001,-0.96,-0.2944774082121478
0.8600000000000001,-0.96,-0.30804943127709605
0.8800000000000001,-0.96,-0.31676333079099395
0.9000000000000001,-0.96,-0.32048168335307653
0.9199999999999999,-0.96,-0.31914584832220355
0.94,-0.96,-0.3127768926148004
0.96,-0.96,-0.30147525846700296
0.98,-0.96,-0.285419179400591
1.0,-0.96,-0.2648618693738783

-1.0,-0.94,-0.25425007168747643
-0.98,-0.94,-0.21872362883149327
-0.96,-0.94,-0.17974778368967492
-0.94,-0.94,-0.13793720862294914
-0.92,-0.94,-0.09395128137654513
-0.9,-0.94,-0.04848368629905785
-0.88,-0.94,-0.0022514745258840965
-0.86,-0.94,0.04401624434552862
-0.84,-0.94,0.08958980074958242
-0.8200000000000001,-0.94,0.13375047247746275
-0.8,-0.94,0.1758018193557139
-0.78,-0.94,0.2150806665238089
-0.76,-0.94,0.25096756309786133
-0.74,-0.94,0.28289655128110525
-0.72,-0.94,0.3103640918564379
-0.7,-0.94,0.33293700530067244
-0.6799999999999999,-0.94,0.3502593032843887
-0.6599999999999999,-0.94,0.3620578028205441
-0.64,-0.94,0.3681464345233716
-0.62,-0.94,0.3684291770337459
-0.6,-0.94,0.36290157133337614
-0.5800000000000001,-0.94,0.3516507910661884
-0.56,-0.94,0.3348542677578865
-0.54,-0.94,0.31277689261479913
-0.52,-0.94,0.2857668390313171
-0.5,-0.94,0.2542500716874764
-0.48,-0.94,0.21872362883149335
-0.45999999999999996,-0.94,0.17974778368967506
-0.43999999999999995,-0.94,0.13793720862294928
-0.42000000000000004,-0.94,0.09395128137654517
-0.4,-0.94,0.04848368629905795
-0.38,-0.94,0.0022514745258842006
-0.36,-0.94,-0.044016244345528484
-0.33999999999999997,-0.94,-0.0895898007495824
-0.31999999999999995,-0.94,-0.13375047247746258
-0.29999999999999993,-0.94,-0.17580181935571396
-0.28,-0.94,-0.215080666523809
-0.26,-0.94,-0.25096756309786156
-0.24,-0.94,-0.28289655128110547
-0.21999999999999997,-0.94,-0.31036409185643776
-0.19999999999999996,-0.94,-0.33293700530067255
-0.17999999999999994,-0.94,-0.35025930328438876
-0.16000000000000003,-0.94,-0.3620578028205442
-0.14,-0.94,-0.36814643452337165
-0.12,-0.94,-0.368429177033746
-0.09999999999999998,-0.94,-0.36290157133337625
-0.07999999999999996,-0.94,-0.3516507910661886
-0.05999999999999994,-0.94,-0.33485426775788657
-0.040000000000000036,-0.94,-0.3127768926147992
-0.020000000000000018,-0.94,-0.2857668390313171
0.0,-0.94,-0.2542500716874765
0.020000000000000018,-0.94,-0.21872362883149338
0.040000000000000036,-0.94,-0.17974778368967503
0.06000000000000005,-0.94,-0.13793720862294923
0.08000000000000007,-0.94,-0.09395128137654515
0.10000000000000009,-0.94,-0.04848368629905784
0.1200000000000001,-0.94,-0.002251474525884152
0.14000000000000012,-0.94,0.04401624434552858
0.15999999999999992,-0.94,0.0895898007495825
0.17999999999999994,-0.94,0.1337504724774626
0.19999999999999996,-0.94,0.17580181935571393
0.21999999999999997,-0.94,0.21508066652380908
0.24,-0.94,0.2509675630978615
0.26,-0.94,0.28289655128110536
0.28,-0.94,0.31036409185643793
0.30000000000000004,-0.94,0.3329370053006725
0.32000000000000006,-0.94,0.3502593032843888
0.3400000000000001,-0.94,0.36205780282054423
0.3600000000000001,-0.94,0.3681464345233715
0.3800000000000001,-0.94,0.36842917703374617
0.40000000000000013,-0.94,0.3629015713333763
0.41999999999999993,-0.94,0.35165079106618846
0.43999999999999995,-0.94,0.33485426775788657
0.45999999999999996,-0.94,0.3127768926147991
0.48,-0.94,0.2857668390313172
0.5,-0.94,0.25425007168747643
0.52,-0.94,0.21872362883149327
0.54,-0.94,0.17974778368967503
0.56,-0.94,0.13793720862294914
0.5800000000000001,-0.94,0.0939512813765451
0.6000000000000001,-0.94,0.0484836862990579
0.6200000000000001,-0.94,0.002251474525884145
0.6400000000000001,-0.94,-0.044016244345528484
0.6600000000000001,-0.94,-0.08958980074958242
0.6799999999999999,-0.94,-0.13375047247746266
0.7,-0.94,-0.17580181935571385
0.72,-0.94,-0.21508066652380906
0.74,-0.94,-0.2509675630978615
0.76,-0.94,-0.28289655128110525
0.78,-0.94,-0.3103640918564377
0.8,-0.94,-0.3329370053006724
0.8200000000000001,-0.94,-0.3502593032843888
0.8400000000000001,-0.94,-0.36205780282054423
0.8600000000000001,-0.94,-0.3681464345233716
0.8800000000000001,-0.94,-0.36842917703374606
0.9000000000000001,-0.94,-0.36290157133337625
0.9199999999999999,-0.94,-0.35165079106618846
0.94,-0.94,-0.33485426775788635
0.96,-0.94,-0.31277689261479913
0.98,-0.94,-0.2857668390313171
1.0,-0.94,-0.25425007168747643

-1.0,-0.92,-0.23962859848893206
-0.98,-0.92,-0.19387032593082315
-0.96,-0.92,-0.1450546025202661
-0.94,-0.92,-0.09395128137654511
-0.92,-0.92,-0.041366292401740876
-0.9,-0.92,0.011871067715264152
-0.88,-0.92,0.06492121400296744
-0.86,-0.92,0.11694751396379041
-0.84,-0.92,0.1671294817683462
-0.8200000000000001,-0.92,0.21467571780710198
-0.8,-0.92,0.25883638953498184
-0.78,-0.92,0.29891505677853103
-0.76,-0.92,0.3342796550134833
-0.74,-0.92,0.36437246339988616
-0.72,-0.92,0.3887189003729135
-0.7,-0.92,0.4069350080776443
-0.6799999999999999,-0.92,0.41873350761379974
-0.6599999999999999,-0.92,0.4239283295956124
-0.64,-0.92,0.42243754857719384
-0.62,-0.92,0.41428467506575384
-0.6,-0.92,0.39959828474685793
-0.5800000000000001,-0.92,0.3786099907690594
-0.56,-0.92,0.3516507910661872
-0.54,-0.92,0.3191458483222006
-0.52,-0.92,0.28160778490168437
-0.5,-0.92,0.2396285984889321
-0.48,-0.92,0.19387032593082332
-0.45999999999999996,-0.92,0.14505460252026625
-0.43999999999999995,-0.92,0.09395128137654517
-0.42000000000000004,-0.92,0.04136629240174097
-0.4,-0.92,-0.011871067715264055
-0.38,-0.92,-0.06492121400296727
-0.36,-0.92,-0.11694751396379038
-0.33999999999999997,-0.92,-0.16712948176834602
-0.31999999999999995,-0.92,-0.21467571780710207
-0.29999999999999993,-0.92,-0.258836389534982
-0.28,-0.92,-0.29891505677853125
-0.26,-0.92,-0.33427965501348345
-0.24,-0.92,-0.36437246339988605
-0.21999999999999997,-0.92,-0.38871890037291357
-0.19999999999999996,-0.92,-0.4069350080776445
-0.17999999999999994,-0.92,-0.4187335076137998
-0.16000000000000003,-0.92,-0.42392832959561244
-0.14,-0.92,-0.42243754857719396
-0.12,-0.92,-0.41428467506575395
-0.09999999999999998,-0.92,-0.3995982847468581
-0.07999999999999996,-0.92,-0.37860999076905943
-0.05999999999999994,-0.92,-0.3516507910661872
-0.040000000000000036,-0.92,-0.3191458483222006
-0.020000000000000018,-0.92,-0.2816077849016845
0.0,-0.92,-0.23962859848893214
0.020000000000000018,-0.92,-0.1938703259308233
0.040000000000000036,-0.92,-0.1450546025202662
0.06000000000000005,-0.92,-0.09395128137654517
0.08000000000000007,-0.92,-0.041366292401740876
0.10000000000000009,-0.92,0.011871067715264083
0.1200000000000001,-0.92,0.06492121400296738
0.14000000000000012,-0.92,0.11694751396379052
0.15999999999999992,-0.92,0.16712948176834608
0.17999999999999994,-0.92,0.214675717807102
0.19999999999999996,-0.92,0.25883638953498206
0.21999999999999997,-0.92,0.29891505677853125
0.24,-0.92,0.33427965501348333
0.26,-0.92,0.3643724633998862
0.28,-0.92,0.38871890037291357
0.30000000000000004,-0.92,0.4069350080776445
0.32000000000000006,-0.92,0.41873350761379985
0.3400000000000001,-0.92,0.42392832959561233
0.3600000000000001,-0.92,0.4224375485771942
0.3800000000000001,-0.92,0.414284675065754
0.40000000000000013,-0.92,0.399598284746858
0.41999999999999993,-0.92,0.3786099907690594
0.43999999999999995,-0.92,0.35165079106618713
0.45999999999999996,-0.92,0.3191458483222007
0.48,-0.92,0.2816077849016844
0.5,-0.92,0.23962859848893206
0.52,-0.92,0.19387032593082323
0.54,-0.92,0.14505460252026608
0.56,-0.92,0.0939512813765451
0.5800000000000001,-0.92,0.04136629240174093
0.6000000000000001,-0.92,-0.011871067715264104
0.6200000000000001,-0.92,-0.06492121400296728
0.6400000000000001,-0.92,-0.11694751396379041
0.6600000000000001,-0.92,-0.16712948176834613
0.6799999999999999,-0.92,-0.21467571780710196
0.7,-0.92,-0.258836389534982
0.72,-0.92,-0.29891505677853125
0.74,-0.92,-0.3342796550134832
0.76,-0.92,-0.364372463399886
0.78,-0.92,-0.38871890037291346
0.8,-0.92,-0.40693500807764443
0.8200000000000001,-0.92,-0.41873350761379985
0.8400000000000001,-0.92,-0.42392832959561244
0.8600000000000001,-0.92,-0.42243754857719396
0.8800000000000001,-0.92,-0.4142846750657539
0.9000000000000001,-0.92,-0.399598284746858
0.9199999999999999,-0.92,-0.37860999076905916
0.94,-0.92,-0.35165079106618724
0.96,-0.92,-0.3191458483222007
0.98,-0.92,-0.2816077849016844
1.0,-0.92,-0.23962859848893206

-1.0,-0.9,-0.22122803914503103
-0.98,-0.9,-0.16595957217770482
-0.96,-0.9,-0.10807382361769333
-0.94,-0.9,-0.04848368629905786
-0.92,-0.9,0.011871067715264152
-0.9,-0.9,0.07203860790028443
-0.88,-0.9,0.13107005620493867
-0.86,-0.9,0.188034451425785
-0.84,-0.9,0.24203343102131006
-0.8200000000000001,-0.9,0.2922153988258654
-0.8,-0.9,0.3377889552299192
-0.78,-0.9,0.37803537802465637
-0.76,-0.9,0.412319957080556
-0.74,-0.9,0.44010200410529166
-0.72,-0.9,0.46094337962109266
-0.7,-0.9,0.47451540268604087
-0.6799999999999999,-0.9,0.480604034388868
-0.6599999999999999,-0.9,0.4791132533704492
-0.64,-0.9,0.47006657013799447
-0.62,-0.9,0.4536066562903059
-0.6,-0.9,0.4299930945014371
-0.5800000000000001,-0.9,0.39959828474685666
-0.56,-0.9,0.3629015713333736
-0.54,-0.9,0.3204816833530723
-0.52,-0.9,0.2730076077798154
-0.5,-0.9,0.22122803914503122
-0.48,-0.9,0.165959572177705
-0.45999999999999996,-0.9,0.10807382361769338
-0.43999999999999995,-0.9,0.04848368629905794
-0.42000000000000004,-0.9,-0.011871067715264045
-0.4,-0.9,-0.07203860790028427
-0.38,-0.9,-0.1310700562049386
-0.36,-0.9,-0.18803445142578487
-0.33999999999999997,-0.9,-0.2420334310213102
-0.31999999999999995,-0.9,-0.29221539882586556
-0.29999999999999993,-0.9,-0.3377889552299194
-0.28,-0.9,-0.3780353780246565
-0.26,-0.9,-0.41231995708055597
-0.24,-0.9,-0.44010200410529166
-0.21999999999999997,-0.9,-0.4609433796210929
-0.19999999999999996,-0.9,-0.4745154026860409
-0.17999999999999994,-0.9,-0.48060403438886795
-0.16000000000000003,-0.9,-0.47911325337044935
-0.14,-0.9,-0.4700665701379946
-0.12,-0.9,-0.453606656290306
-0.09999999999999998,-0.9,-0.42999309450143713
-0.07999999999999996,-0.9,-0.39959828474685677
-0.05999999999999994,-0.9,-0.36290157133337353
-0.040000000000000036,-0.9,-0.3204816833530724
-0.020000000000000018,-0.9,-0.27300760777981553
0.0,-0.9,-0.22122803914503117
0.020000000000000018,-0.9,-0.1659595721777049
0.040000000000000036,-0.9,-0.10807382361769341
0.06000000000000005,-0.9,-0.048483686299057846
0.08000000000000007,-0.9,0.011871067715264083
0.10000000000000009,-0.9,0.07203860790028435
0.1200000000000001,-0.9,0.13107005620493878
0.14000000000000012,-0.9,0.1880344514257849
0.15999999999999992,-0.9,0.24203343102131014
0.17999999999999994,-0.9,0.2922153988258656
0.19999999999999996,-0.9,0.3377889552299194
0.21999999999999997,-0.9,0.3780353780246565
0.24,-0.9,0.4123199570805561
0.26,-0.9,0.44010200410529166
0.28,-0.9,0.4609433796210929
0.30000000000000004,-0.9,0.4745154026860409
0.32000000000000006,-0.9,0.480604034388868
0.3400000000000001,-0.9,0.4791132533704496
0.3600000000000001,-0.9,0.4700665701379947
0.3800000000000001,-0.9,0.45360665629030583
0.40000000000000013,-0.9,0.429993094501437
0.41999999999999993,-0.9,0.39959828474685666
0.43999999999999995,-0.9,0.3629015713333737
0.45999999999999996,-0.9,0.3204816833530724
0.48,-0.9,0.27300760777981536
0.5,-0.9,0.22122803914503114
0.52,-0.9,0.16595957217770482
0.54,-0.9,0.10807382361769331
0.56,-0.9,0.048483686299057915
0.5800000000000001,-0.9,-0.011871067715264097
0.6000000000000001,-0.9,-0.0720386079002843
0.6200000000000001,-0.9,-0.13107005620493867
0.6400000000000001,-0.9,-0.18803445142578495
0.6600000000000001,-0.9,-0.24203343102131009
0.6799999999999999,-0.9,-0.29221539882586556
0.7,-0.9,-0.3377889552299194
0.72,-0.9,-0.37803537802465625
0.74,-0.9,-0.41231995708055585
0.76,-0.9,-0.44010200410529143
0.78,-0.9,-0.4609433796210928
0.8,-0.9,-0.4745154026860409
0.8200000000000001,-0.9,-0.4806040343888681
0.8400000000000001,-0.9,-0.4791132533704493
0.8600000000000001,-0.9,-0.4700665701379946
0.8800000000000001,-0.9,-0.4536066562903059
0.9000000000000001,-0.9,-0.4299930945014369
0.9199999999999999,-0.9,-0.39959828474685677
0.94,-0.9,-0.3629015713333737
0.96,-0.9,-0.3204816833530724
0.98,-0.9,-0.27300760777981536
1.0,-0.9,-0.22122803914503103

-1.0,-0.88,-0.19933858146858813
-0.98,-0.88,-0.13543153683190126
-0.96,-0.88,-0.06938865595649664
-0.94,-0.88,-0.0022514745258840965
-0.92,-0.88,0.06492121400296742
-0.9,-0.88,0.1310700562049387
-0.88,-0.88,0.19515184532310198
-0.86,-0.88,0.2561559732624583
-0.84,-0.88,0.3131203684833043
-0.8200000000000001,-0.88,0.36514666844412735
-0.8,-0.88,0.41141438731554
-0.78,-0.88,0.45119385553194435
-0.76,-0.88,0.48385772711646496
-0.74,-0.88,0.5088908733017627
-0.72,-0.88,0.5258985064184191
-0.7,-0.88,0.5346124059323165
-0.6799999999999999,-0.88,0.5348951484426901
-0.6599999999999999,-0.88,0.5267422749312498
-0.64,-0.88,0.5102823610835612
-0.62,-0.88,0.4857749895736777
-0.6,-0.88,0.45360665629030456
-0.5800000000000001,-0.88,0.4142846750657513
-0.56,-0.88,0.3684291770337419
-0.54,-0.88,0.31676333079098806
-0.52,-0.88,0.26010193759641903
-0.5,-0.88,0.19933858146858827
-0.48,-0.88,0.13543153683190134
-0.45999999999999996,-0.88,0.06938865595649671
-0.43999999999999995,-0.88,0.0022514745258842075
-0.42000000000000004,-0.88,-0.06492121400296727
-0.4,-0.88,-0.1310700562049386
-0.38,-0.88,-0.19515184532310184
-0.36,-0.88,-0.2561559732624585
-0.33999999999999997,-0.88,-0.31312036848330443
-0.31999999999999995,-0.88,-0.3651466684441276
-0.29999999999999993,-0.88,-0.4114143873155401
-0.28,-0.88,-0.45119385553194424
-0.26,-0.88,-0.4838577271164647
-0.24,-0.88,-0.508890873301763
-0.21999999999999997,-0.88,-0.5258985064184191
-0.19999999999999996,-0.88,-0.5346124059323164
-0.17999999999999994,-0.88,-0.5348951484426903
-0.16000000000000003,-0.88,-0.5267422749312499
-0.14,-0.88,-0.5102823610835613
-0.12,-0.88,-0.48577498957367776
-0.09999999999999998,-0.88,-0.4536066562903046
-0.07999999999999996,-0.88,-0.41428467506575123
-0.05999999999999994,-0.88,-0.36842917703374195
-0.040000000000000036,-0.88,-0.3167633307909882
-0.020000000000000018,-0.88,-0.260101937596419
0.0,-0.88,-0.19933858146858816
0.020000000000000018,-0.88,-0.13543153683190134
0.040000000000000036,-0.88,-0.06938865595649665
0.06000000000000005,-0.88,-0.0022514745258841763
0.08000000000000007,-0.88,0.06492121400296734
0.10000000000000009,-0.88,0.13107005620493878
0.1200000000000001,-0.88,0.19515184532310184
0.14000000000000012,-0.88,0.2561559732624584
0.15999999999999992,-0.88,0.31312036848330455
0.17999999999999994,-0.88,0.3651466684441276
0.19999999999999996,-0.88,0.41141438731554014
0.21999999999999997,-0.88,0.4511938555319444
0.24,-0.88,0.48385772711646485
0.26,-0.88,0.5088908733017629
0.28,-0.88,0.5258985064184192
0.30000000000000004,-0.88,0.5346124059323165
0.32000000000000006,-0.88,0.5348951484426906
0.3400000000000001,-0.88,0.52674227493125
0.3600000000000001,-0.88,0.5102823610835611
0.3800000000000001,-0.88,0.48577498957367765
0.40000000000000013,-0.88,0.45360665629030444
0.41999999999999993,-0.88,0.4142846750657514
0.43999999999999995,-0.88,0.368429177033742
0.45999999999999996,-0.88,0.316763330790988
0.48,-0.88,0.2601019375964189
0.5,-0.88,0.19933858146858807
0.52,-0.88,0.13543153683190123
0.54,-0.88,0.06938865595649671
0.56,-0.88,0.002251474525884152
0.5800000000000001,-0.88,-0.06492121400296733
0.6000000000000001,-0.88,-0.13107005620493867
0.6200000000000001,-0.88,-0.19515184532310198
0.6400000000000001,-0.88,-0.2561559732624584
0.6600000000000001,-0.88,-0.3131203684833045
0.6799999999999999,-0.88,-0.3651466684441275
0.7,-0.88,-0.41141438731553986
0.72,-0.88,-0.45119385553194413
0.74,-0.88,-0.48385772711646463
0.76,-0.88,-0.5088908733017626
0.78,-0.88,-0.5258985064184191
0.8,-0.88,-0.5346124059323165
0.8200000000000001,-0.88,-0.5348951484426903
0.8400000000000001,-0.88,-0.52674227493125
0.8600000000000001,-0.88,-0.5102823610835613
0.8800000000000001,-0.88,-0.4857749895736776
0.9000000000000001,-0.88,-0.45360665629030467
0.9199999999999999,-0.88,-0.4142846750657514
0.94,-0.88,-0.368429177033742
0.96,-0.88,-0.316763330790988
0.98,-0.88,-0.2601019375964188
1.0,-0.88,-0.19933858146858813

-1.0,-0.86,-0.1743054352832891
-0.98,-0.86,-0.10276766524737996
-0.96,-0.86,-0.02960918774009207
-0.94,-0.86,0.044016244345528616
-0.92,-0.86,0.11694751396379041
-0.9,-0.86,0.188034451425785
-0.88,-0.86,0.25615597326245826
-0.86,-0.86,0.32023776238062135
-0.84,-0.86,0.3792692106852757
-0.8200000000000001,-0.86,0.43231935697297885
-0.8,-0.86,0.4785515687461527
-0.78,-0.86,0.5172367364073488
-0.76,-0.86,0.5477647717531511
-0.74,-0.86,0.5696542294295923
-0.72,-0.86,0.5825598996129867
-0.7,-0.86,0.5862782521750683
-0.6799999999999999,-0.86,0.580750646474698
-0.6599999999999999,-0.86,0.5660642561558019
-0.64,-0.86,0.542450694366933
-0.62,-0.86,0.5102823610835597
-0.6,-0.86,0.4700665701379919
-0.5800000000000001,-0.86,0.4224375485771898
-0.56,-0.86,0.36814643452336554
-0.54,-0.86,0.3080494312770883
-0.52,-0.86,0.24309430447976085
-0.5,-0.86,0.17430543528328915
-0.48,-0.86,0.10276766524738003
-0.45999999999999996,-0.86,0.029609187740092188
-0.43999999999999995,-0.86,-0.04401624434552846
-0.42000000000000004,-0.86,-0.11694751396379033
-0.4,-0.86,-0.18803445142578484
-0.38,-0.86,-0.25615597326245837
-0.36,-0.86,-0.3202377623806214
-0.33999999999999997,-0.86,-0.3792692106852758
-0.31999999999999995,-0.86,-0.43231935697297896
-0.29999999999999993,-0.86,-0.47855156874615246
-0.28,-0.86,-0.5172367364073485
-0.26,-0.86,-0.5477647717531512
-0.24,-0.86,-0.5696542294295924
-0.21999999999999997,-0.86,-0.5825598996129866
-0.19999999999999996,-0.86,-0.5862782521750682
-0.17999999999999994,-0.86,-0.5807506464746981
-0.16000000000000003,-0.86,-0.5660642561558019
-0.14,-0.86,-0.5424506943669329
-0.12,-0.86,-0.5102823610835597
-0.09999999999999998,-0.86,-0.4700665701379918
-0.07999999999999996,-0.86,-0.4224375485771899
-0.05999999999999994,-0.86,-0.36814643452336565
-0.040000000000000036,-0.86,-0.30804943127708817
-0.020000000000000018,-0.86,-0.24309430447976074
0.0,-0.86,-0.17430543528328918
0.020000000000000018,-0.86,-0.10276766524738
0.040000000000000036,-0.86,-0.029609187740092167
0.06000000000000005,-0.86,0.04401624434552853
0.08000000000000007,-0.86,0.11694751396379047
0.10000000000000009,-0.86,0.18803445142578484
0.1200000000000001,-0.86,0.2561559732624584
0.14000000000000012,-0.86,0.32023776238062157
0.15999999999999992,-0.86,0.3792692106852759
0.17999999999999994,-0.86,0.432319356972979
0.19999999999999996,-0.86,0.47855156874615257
0.21999999999999997,-0.86,0.5172367364073487
0.24,-0.86,0.5477647717531513
0.26,-0.86,0.5696542294295924
0.28,-0.86,0.5825598996129866