TITLE = "Solution" 
VARIABLES = "x", "y", "sol" 
ZONE STRANDID=1, SOLUTIONTIME= 0.9900000000000007, I= 101, J =101, DATAPACKING=POINT 
-1.0,-1.0,-0.26770965579131795
-0.98,-1.0,-0.2577444754765627
-0.96,-1.0,-0.24371451081445555
-0.94,-1.0,-0.2258410227288126
-0.92,-1.0,-0.20440588680384852
-0.9,-1.0,-0.1797471479378297
-0.88,-1.0,-0.15225368917308998
-0.86,-1.0,-0.1223590987781452
-0.84,-1.0,-0.09053483230168646
-0.8200000000000001,-1.0,-0.057282777436942836
-0.8,-1.0,-0.023127338952945997
-0.78,-1.0,0.01139283148194143
-0.76,-1.0,0.04573333015861104
-0.74,-1.0,0.07935258689891198
-0.72,-1.0,0.11172040594087962
-0.7,-1.0,0.1423263274426239
-0.6799999999999999,-1.0,0.17068767773897137
-0.6599999999999999,-1.0,0.19635718139349856
-0.64,-1.0,0.2189300149993558
-0.62,-1.0,0.2380501914862213
-0.6,-1.0,0.2534161742490579
-0.5800000000000001,-1.0,0.2647856325605022
-0.56,-1.0,0.27197926327119754
-0.54,-1.0,0.2748836185275696
-0.52,-1.0,0.27345289491224745
-0.5,-1.0,0.267709655791318
-0.48,-1.0,0.25774447547656276
-0.45999999999999996,-1.0,0.24371451081445555
-0.43999999999999995,-1.0,0.22584102272881265
-0.42000000000000004,-1.0,0.20440588680384855
-0.4,-1.0,0.17974714793782984
-0.38,-1.0,0.15225368917309004
-0.36,-1.0,0.12235909877814531
-0.33999999999999997,-1.0,0.09053483230168659
-0.31999999999999995,-1.0,0.057282777436942864
-0.29999999999999993,-1.0,0.02312733895294605
-0.28,-1.0,-0.011392831481941389
-0.26,-1.0,-0.04573333015861104
-0.24,-1.0,-0.07935258689891206
-0.21999999999999997,-1.0,-0.11172040594087965
-0.19999999999999996,-1.0,-0.14232632744262405
-0.17999999999999994,-1.0,-0.1706876777389712
-0.16000000000000003,-1.0,-0.1963571813934986
-0.14,-1.0,-0.21893001499935583
-0.12,-1.0,-0.2380501914862214
-0.09999999999999998,-1.0,-0.25341617424905793
-0.07999999999999996,-1.0,-0.2647856325605023
-0.05999999999999994,-1.0,-0.27197926327119765
-0.040000000000000036,-1.0,-0.27488361852756976
-0.020000000000000018,-1.0,-0.2734528949122476
0.0,-1.0,-0.26770965579131806
0.020000000000000018,-1.0,-0.2577444754765628
0.040000000000000036,-1.0,-0.24371451081445566
0.06000000000000005,-1.0,-0.22584102272881262
0.08000000000000007,-1.0,-0.20440588680384858
0.10000000000000009,-1.0,-0.17974714793782984
0.1200000000000001,-1.0,-0.15225368917309
0.14000000000000012,-1.0,-0.12235909877814519
0.15999999999999992,-1.0,-0.09053483230168653
0.17999999999999994,-1.0,-0.057282777436942905
0.19999999999999996,-1.0,-0.023127338952945997
0.21999999999999997,-1.0,0.011392831481941416
0.24,-1.0,0.04573333015861102
0.26,-1.0,0.07935258689891209
0.28,-1.0,0.11172040594087959
0.30000000000000004,-1.0,0.14232632744262397
0.32000000000000006,-1.0,0.1706876777389713
0.3400000000000001,-1.0,0.19635718139349861
0.3600000000000001,-1.0,0.21893001499935585
0.3800000000000001,-1.0,0.2380501914862215
0.40000000000000013,-1.0,0.2534161742490579
0.41999999999999993,-1.0,0.26478563256050236
0.43999999999999995,-1.0,0.2719792632711977
0.45999999999999996,-1.0,0.2748836185275696
0.48,-1.0,0.27345289491224756
0.5,-1.0,0.2677096557913179
0.52,-1.0,0.2577444754765627
0.54,-1.0,0.2437145108144556
0.56,-1.0,0.22584102272881254
0.5800000000000001,-1.0,0.2044058868038486
0.6000000000000001,-1.0,0.17974714793782973
0.6200000000000001,-1.0,0.15225368917308993
0.6400000000000001,-1.0,0.12235909877814527
0.6600000000000001,-1.0,0.09053483230168652
0.6799999999999999,-1.0,0.057282777436942905
0.7,-1.0,0.023127338952946018
0.72,-1.0,-0.011392831481941423
0.74,-1.0,-0.04573333015861098
0.76,-1.0,-0.07935258689891206
0.78,-1.0,-0.1117204059408797
0.8,-1.0,-0.14232632744262397
0.8200000000000001,-1.0,-0.17068767773897126
0.8400000000000001,-1.0,-0.19635718139349853
0.8600000000000001,-1.0,-0.21893001499935585
0.8800000000000001,-1.0,-0.23805019148622147
0.9000000000000001,-1.0,-0.253416174249058
0.9199999999999999,-1.0,-0.2647856325605023
0.94,-1.0,-0.27197926327119776
0.96,-1.0,-0.27488361852756954
0.98,-1.0,-0.2734528949122475
1.0,-1.0,-0.26770965579131795

-1.0,-0.98,-0.25774447547656265
-0.98,-0.98,-0.23654054807820443
-0.96,-0.98,-0.21160623493417866
-0.94,-0.98,-0.18333476505780325
-0.92,-0.98,-0.15217199641758616
-0.9,-0.98,-0.1186093844907195
-0.88,-0.98,-0.08317623171662214
-0.86,-0.98,-0.046431340081281275
-0.84,-0.98,-0.00895419847612048
-0.8200000000000001,-0.98,0.028664156187987642
-0.8,-0.98,0.06583045998587439
-0.78,-0.98,0.10195857810457323
-0.76,-0.98,0.13647874853946051
-0.74,-0.98,0.1688465675814282
-0.72,-0.98,0.19855157538858625
-0.7,-0.98,0.22512530624290458
-0.6799999999999999,-0.98,0.24814867653443257
-0.6599999999999999,-0.98,0.26725859396017854
-0.64,-0.98,0.28215368370662686
-0.62,-0.98,0.29259904131058107
-0.6,-0.98,0.29842993724287264
-0.5800000000000001,-0.98,0.29955441479144107
-0.56,-0.98,0.2959547402736149
-0.54,-0.98,0.2876876827068815
-0.52,-0.98,0.2748836185275692
-0.5,-0.98,0.2577444754765627
-0.48,-0.98,0.23654054807820443
-0.45999999999999996,-0.98,0.21160623493417868
-0.43999999999999995,-0.98,0.1833347650578033
-0.42000000000000004,-0.98,0.15217199641758633
-0.4,-0.98,0.11860938449071953
-0.38,-0.98,0.08317623171662225
-0.36,-0.98,0.046431340081281386
-0.33999999999999997,-0.98,0.008954198476120542
-0.31999999999999995,-0.98,-0.0286641561879876
-0.29999999999999993,-0.98,-0.0658304599858743
-0.28,-0.98,-0.10195857810457326
-0.26,-0.98,-0.1364787485394606
-0.24,-0.98,-0.1688465675814283
-0.21999999999999997,-0.98,-0.19855157538858645
-0.19999999999999996,-0.98,-0.22512530624290442
-0.17999999999999994,-0.98,-0.2481486765344326
-0.16000000000000003,-0.98,-0.26725859396017854
-0.14,-0.98,-0.28215368370662686
-0.12,-0.98,-0.2925990413105811
-0.09999999999999998,-0.98,-0.29842993724287276
-0.07999999999999996,-0.98,-0.2995544147914412
-0.05999999999999994,-0.98,-0.2959547402736151
-0.040000000000000036,-0.98,-0.28768768270688166
-0.020000000000000018,-0.98,-0.2748836185275692
0.0,-0.98,-0.25774447547656276
0.020000000000000018,-0.98,-0.23654054807820454
0.040000000000000036,-0.98,-0.21160623493417868
0.06000000000000005,-0.98,-0.18333476505780333
0.08000000000000007,-0.98,-0.15217199641758627
0.10000000000000009,-0.98,-0.1186093844907195
0.1200000000000001,-0.98,-0.08317623171662214
0.14000000000000012,-0.98,-0.046431340081281344
0.15999999999999992,-0.98,-0.008954198476120528
0.17999999999999994,-0.98,0.028664156187987698
0.19999999999999996,-0.98,0.06583045998587433
0.21999999999999997,-0.98,0.1019585781045732
0.24,-0.98,0.13647874853946063
0.26,-0.98,0.16884656758142821
0.28,-0.98,0.19855157538858637
0.30000000000000004,-0.98,0.2251253062429046
0.32000000000000006,-0.98,0.24814867653443262
0.3400000000000001,-0.98,0.2672585939601786
0.3600000000000001,-0.98,0.28215368370662697
0.3800000000000001,-0.98,0.292599041310581
0.40000000000000013,-0.98,0.29842993724287287
0.41999999999999993,-0.98,0.2995544147914413
0.43999999999999995,-0.98,0.295954740273615
0.45999999999999996,-0.98,0.2876876827068816
0.48,-0.98,0.27488361852756904
0.5,-0.98,0.2577444754765627
0.52,-0.98,0.2365405480782045
0.54,-0.98,0.21160623493417863
0.56,-0.98,0.18333476505780333
0.5800000000000001,-0.98,0.1521719964175862
0.6000000000000001,-0.98,0.11860938449071945
0.6200000000000001,-0.98,0.0831762317166222
0.6400000000000001,-0.98,0.04643134008128133
0.6600000000000001,-0.98,0.008954198476120563
0.6799999999999999,-0.98,-0.02866415618798763
0.7,-0.98,-0.06583045998587436
0.72,-0.98,-0.10195857810457318
0.74,-0.98,-0.1364787485394606
0.76,-0.98,-0.1688465675814283
0.78,-0.98,-0.1985515753885863
0.8,-0.98,-0.22512530624290444
0.8200000000000001,-0.98,-0.2481486765344325
0.8400000000000001,-0.98,-0.2672585939601786
0.8600000000000001,-0.98,-0.28215368370662697
0.8800000000000001,-0.98,-0.29259904131058107
0.9000000000000001,-0.98,-0.29842993724287276
0.9199999999999999,-0.98,-0.2995544147914413
0.94,-0.98,-0.29595474027361496
0.96,-0.98,-0.2876876827068815
0.98,-0.98,-0.27488361852756915
1.0,-0.98,-0.25774447547656265

-1.0,-0.96,-0.24371451081445558
-0.98,-0.96,-0.21160623493417863
-0.96,-0.96,-0.17616080232155215
-0.94,-0.96,-0.13793720862295228
-0.92,-0.96,-0.09753826274467416
-0.9,-0.96,-0.055601080196378556
-0.88,-0.96,-0.012787035398910719
-0.86,-0.96,0.030228668585402678
-0.84,-0.96,0.07276764840839292
-0.8200000000000001,-0.96,0.1141590389466969
-0.8,-0.96,0.15375007324550702
-0.78,-0.96,0.19091637704339354
-0.76,-0.96,0.2250718155273905
-0.74,-0.96,0.255677737029135
-0.72,-0.96,0.28225146788345334
-0.7,-0.96,0.304373924480395
-0.6799999999999999,-0.96,0.3216962224641117
-0.6599999999999999,-0.96,0.33394517884756075
-0.64,-0.96,0.34092762027140344
-0.62,-0.96,0.3425334294632778
-0.6,-0.96,0.3387372818529642
-0.5800000000000001,-0.96,0.3295990449559855
-0.56,-0.96,0.31526283422712525
-0.54,-0.96,0.2959547402736146
-0.52,-0.96,0.27197926327119665
-0.5,-0.96,0.24371451081445555
-0.48,-0.96,0.2116062349341787
-0.45999999999999996,-0.96,0.17616080232155223
-0.43999999999999995,-0.96,0.1379372086229524
-0.42000000000000004,-0.96,0.09753826274467418
-0.4,-0.96,0.05560108019637866
-0.38,-0.96,0.012787035398910823
-0.36,-0.96,-0.030228668585402574
-0.33999999999999997,-0.96,-0.0727676484083929
-0.31999999999999995,-0.96,-0.11415903894669677
-0.29999999999999993,-0.96,-0.15375007324550707
-0.28,-0.96,-0.19091637704339368
-0.26,-0.96,-0.2250718155273907
-0.24,-0.96,-0.2556777370291352
-0.21999999999999997,-0.96,-0.2822514678834532
-0.19999999999999996,-0.96,-0.30437392448039513
-0.17999999999999994,-0.96,-0.3216962224641118
-0.16000000000000003,-0.96,-0.33394517884756075
-0.14,-0.96,-0.34092762027140344
-0.12,-0.96,-0.34253342946327797
-0.09999999999999998,-0.96,-0.3387372818529643
-0.07999999999999996,-0.96,-0.32959904495598574
-0.05999999999999994,-0.96,-0.31526283422712537
-0.040000000000000036,-0.96,-0.2959547402736147
-0.020000000000000018,-0.96,-0.27197926327119665
0.0,-0.96,-0.24371451081445566
0.020000000000000018,-0.96,-0.2116062349341787
0.040000000000000036,-0.96,-0.17616080232155223
0.06000000000000005,-0.96,-0.13793720862295236
0.08000000000000007,-0.96,-0.09753826274467417
0.10000000000000009,-0.96,-0.05560108019637855
0.1200000000000001,-0.96,-0.012787035398910778
0.14000000000000012,-0.96,0.03022866858540265
0.15999999999999992,-0.96,0.07276764840839298
0.17999999999999994,-0.96,0.1141590389466968
0.19999999999999996,-0.96,0.15375007324550705
0.21999999999999997,-0.96,0.1909163770433937
0.24,-0.96,0.22507181552739058
0.26,-0.96,0.2556777370291351
0.28,-0.96,0.28225146788345334
0.30000000000000004,-0.96,0.3043739244803951
0.32000000000000006,-0.96,0.3216962224641118
0.3400000000000001,-0.96,0.33394517884756086
0.3600000000000001,-0.96,0.34092762027140333
0.3800000000000001,-0.96,0.3425334294632781
0.40000000000000013,-0.96,0.33873728185296437
0.41999999999999993,-0.96,0.32959904495598563
0.43999999999999995,-0.96,0.3152628342271253
0.45999999999999996,-0.96,0.29595474027361457
0.48,-0.96,0.27197926327119676
0.5,-0.96,0.2437145108144556
0.52,-0.96,0.21160623493417863
0.54,-0.96,0.1761608023215522
0.56,-0.96,0.13793720862295228
0.5800000000000001,-0.96,0.09753826274467413
0.6000000000000001,-0.96,0.055601080196378605
0.6200000000000001,-0.96,0.012787035398910764
0.6400000000000001,-0.96,-0.03022866858540258
0.6600000000000001,-0.96,-0.07276764840839292
0.6799999999999999,-0.96,-0.11415903894669685
0.7,-0.96,-0.15375007324550696
0.72,-0.96,-0.19091637704339365
0.74,-0.96,-0.2250718155273906
0.76,-0.96,-0.255677737029135
0.78,-0.96,-0.2822514678834532
0.8,-0.96,-0.30437392448039496
0.8200000000000001,-0.96,-0.3216962224641118
0.8400000000000001,-0.96,-0.33394517884756086
0.8600000000000001,-0.96,-0.3409276202714034
0.8800000000000001,-0.96,-0.34253342946327797
0.9000000000000001,-0.96,-0.33873728185296437
0.9199999999999999,-0.96,-0.3295990449559856
0.94,-0.96,-0.31526283422712514
0.96,-0.96,-0.2959547402736146
0.98,-0.96,-0.27197926327119665
1.0,-0.96,-0.24371451081445558

-1.0,-0.94,-0.22584102272881257
-0.98,-0.94,-0.18333476505780322
-0.96,-0.94,-0.13793720862295228
-0.94,-0.94,-0.09036430000842302
-0.92,-0.94,-0.04136629240174461
-0.9,-0.94,0.008284086347134637
-0.88,-0.94,0.05780382010564635
-0.86,-0.94,0.10641195309076354
-0.84,-0.94,0.15334190600822012
-0.8200000000000001,-0.94,0.19785356546591243
-0.8,-0.94,0.2392449560042161
-0.78,-0.94,0.27686331066832437
-0.76,-0.94,0.31011536553306823
-0.74,-0.94,0.33847671582941574
-0.72,-0.94,0.3615000861209438
-0.7,-0.94,0.37882238410466046
-0.6799999999999999,-0.94,0.39017042679352315
-0.6599999999999999,-0.94,0.39536524877533635
-0.64,-0.94,0.3943249246042115
-0.62,-0.94,0.38706586081378663
-0.6,-0.94,0.37370253717639085
-0.5800000000000001,-0.94,0.35444570128864844
-0.56,-0.94,0.32959904495598535
-0.54,-0.94,0.2995544147914403
-0.52,-0.94,0.26478563256050097
-0.5,-0.94,0.22584102272881262
-0.48,-0.94,0.18333476505780338
-0.45999999999999996,-0.94,0.13793720862295242
-0.43999999999999995,-0.94,0.09036430000842306
-0.42000000000000004,-0.94,0.041366292401744706
-0.4,-0.94,-0.00828408634713454
-0.38,-0.94,-0.057803820105646185
-0.36,-0.94,-0.10641195309076351
-0.33999999999999997,-0.94,-0.15334190600821998
-0.31999999999999995,-0.94,-0.1978535654659125
-0.29999999999999993,-0.94,-0.23924495600421622
-0.28,-0.94,-0.2768633106683246
-0.26,-0.94,-0.3101153655330684
-0.24,-0.94,-0.33847671582941563
-0.21999999999999997,-0.94,-0.3615000861209439
-0.19999999999999996,-0.94,-0.3788223841046605
-0.17999999999999994,-0.94,-0.39017042679352315
-0.16000000000000003,-0.94,-0.3953652487753364
-0.14,-0.94,-0.3943249246042116
-0.12,-0.94,-0.38706586081378674
-0.09999999999999998,-0.94,-0.373702537176391
-0.07999999999999996,-0.94,-0.35444570128864855
-0.05999999999999994,-0.94,-0.3295990449559854
-0.040000000000000036,-0.94,-0.29955441479144035
-0.020000000000000018,-0.94,-0.264785632560501
0.0,-0.94,-0.22584102272881265
0.020000000000000018,-0.94,-0.18333476505780336
0.040000000000000036,-0.94,-0.13793720862295236
0.06000000000000005,-0.94,-0.09036430000842305
0.08000000000000007,-0.94,-0.0413662924017446
0.10000000000000009,-0.94,0.008284086347134574
0.1200000000000001,-0.94,0.05780382010564631
0.14000000000000012,-0.94,0.10641195309076362
0.15999999999999992,-0.94,0.15334190600822
0.17999999999999994,-0.94,0.19785356546591246
0.19999999999999996,-0.94,0.2392449560042163
0.21999999999999997,-0.94,0.2768633106683246
0.24,-0.94,0.3101153655330683
0.26,-0.94,0.3384767158294158
0.28,-0.94,0.36150008612094386
0.30000000000000004,-0.94,0.37882238410466057
0.32000000000000006,-0.94,0.39017042679352326
0.3400000000000001,-0.94,0.39536524877533624
0.3600000000000001,-0.94,0.3943249246042118
0.3800000000000001,-0.94,0.3870658608137868
0.40000000000000013,-0.94,0.3737025371763909
0.41999999999999993,-0.94,0.35444570128864855
0.43999999999999995,-0.94,0.3295990449559853
0.45999999999999996,-0.94,0.29955441479144046
0.48,-0.94,0.26478563256050097
0.5,-0.94,0.22584102272881257
0.52,-0.94,0.18333476505780333
0.54,-0.94,0.13793720862295225
0.56,-0.94,0.09036430000842299
0.5800000000000001,-0.94,0.041366292401744664
0.6000000000000001,-0.94,-0.008284086347134588
0.6200000000000001,-0.94,-0.0578038201056462
0.6400000000000001,-0.94,-0.10641195309076354
0.6600000000000001,-0.94,-0.15334190600822006
0.6799999999999999,-0.94,-0.1978535654659124
0.7,-0.94,-0.23924495600421627
0.72,-0.94,-0.2768633106683246
0.74,-0.94,-0.3101153655330682
0.76,-0.94,-0.3384767158294156
0.78,-0.94,-0.36150008612094375
0.8,-0.94,-0.3788223841046605
0.8200000000000001,-0.94,-0.3901704267935232
0.8400000000000001,-0.94,-0.39536524877533635
0.8600000000000001,-0.94,-0.39432492460421165
0.8800000000000001,-0.94,-0.3870658608137867
0.9000000000000001,-0.94,-0.3737025371763909
0.9199999999999999,-0.94,-0.3544457012886483
0.94,-0.94,-0.3295990449559854
0.96,-0.94,-0.29955441479144035
0.98,-0.94,-0.264785632560501
1.0,-0.94,-0.22584102272881257

-1.0,-0.92,-0.20440588680384852
-0.98,-0.92,-0.1521719964175862
-0.96,-0.92,-0.09753826274467411
-0.94,-0.92,-0.041366292401744616
-0.92,-0.92,0.015458049083385758
-0.9,-0.92,0.0720386079002803
-0.88,-0.92,0.1274830748368089
-0.86,-0.92,0.1809170575284638
-0.84,-0.92,0.23149787014828313
-0.8200000000000001,-0.92,0.27842782306573943
-0.8,-0.92,0.3209668028887299
-0.78,-0.92,0.35844394449389094
-0.76,-0.92,0.3902682109703498
-0.74,-0.92,0.41593771462487716
-0.72,-0.92,0.4350476320506229
-0.7,-0.92,0.44729658843407194
-0.6799999999999999,-0.92,0.4524914104158849
-0.6599999999999999,-0.92,0.4505501725501737
-0.64,-0.92,0.4415034893177195
-0.62,-0.92,0.4254940323173246
-0.6,-0.92,0.40277428024947093
-0.5800000000000001,-0.92,0.3737025371763907
-0.56,-0.92,0.33873728185296365
-0.54,-0.92,0.29842993724287153
-0.52,-0.92,0.2534161742490562
-0.5,-0.92,0.20440588680384872
-0.48,-0.92,0.15217199641758633
-0.45999999999999996,-0.92,0.09753826274467417
-0.43999999999999995,-0.92,0.041366292401744706
-0.42000000000000004,-0.92,-0.015458049083385654
-0.4,-0.92,-0.07203860790028013
-0.38,-0.92,-0.12748307483680887
-0.36,-0.92,-0.18091705752846365
-0.33999999999999997,-0.92,-0.23149787014828324
-0.31999999999999995,-0.92,-0.2784278230657396
-0.29999999999999993,-0.92,-0.32096680288873014
-0.28,-0.92,-0.35844394449389105
-0.26,-0.92,-0.3902682109703497
-0.24,-0.92,-0.41593771462487716
-0.21999999999999997,-0.92,-0.43504763205062313
-0.19999999999999996,-0.92,-0.44729658843407194
-0.17999999999999994,-0.92,-0.452491410415885
-0.16000000000000003,-0.92,-0.4505501725501738
-0.14,-0.92,-0.44150348931771966
-0.12,-0.92,-0.4254940323173247
-0.09999999999999998,-0.92,-0.402774280249471
-0.07999999999999996,-0.92,-0.37370253717639074
-0.05999999999999994,-0.92,-0.33873728185296365
-0.040000000000000036,-0.92,-0.29842993724287165
-0.020000000000000018,-0.92,-0.25341617424905627
0.0,-0.92,-0.20440588680384866
0.020000000000000018,-0.92,-0.15217199641758627
0.040000000000000036,-0.92,-0.0975382627446742
0.06000000000000005,-0.92,-0.04136629240174461
0.08000000000000007,-0.92,0.015458049083385689
0.10000000000000009,-0.92,0.07203860790028024
0.1200000000000001,-0.92,0.127483074836809
0.14000000000000012,-0.92,0.18091705752846368
0.15999999999999992,-0.92,0.23149787014828319
0.17999999999999994,-0.92,0.27842782306573965
0.19999999999999996,-0.92,0.3209668028887301
0.21999999999999997,-0.92,0.35844394449389105
0.24,-0.92,0.39026821097034986
0.26,-0.92,0.41593771462487716
0.28,-0.92,0.43504763205062313
0.30000000000000004,-0.92,0.447296588434072
0.32000000000000006,-0.92,0.4524914104158849
0.3400000000000001,-0.92,0.450550172550174
0.3600000000000001,-0.92,0.4415034893177197
0.3800000000000001,-0.92,0.42549403231732463
0.40000000000000013,-0.92,0.4027742802494709
0.41999999999999993,-0.92,0.3737025371763907
0.43999999999999995,-0.92,0.33873728185296376
0.45999999999999996,-0.92,0.29842993724287153
0.48,-0.92,0.25341617424905616
0.5,-0.92,0.20440588680384864
0.52,-0.92,0.15217199641758616
0.54,-0.92,0.0975382627446741
0.56,-0.92,0.041366292401744664
0.5800000000000001,-0.92,-0.015458049083385706
0.6000000000000001,-0.92,-0.07203860790028016
0.6200000000000001,-0.92,-0.1274830748368089
0.6400000000000001,-0.92,-0.18091705752846374
0.6600000000000001,-0.92,-0.23149787014828313
0.6799999999999999,-0.92,-0.2784278230657396
0.7,-0.92,-0.3209668028887301
0.72,-0.92,-0.3584439444938909
0.74,-0.92,-0.39026821097034964
0.76,-0.92,-0.415937714624877
0.78,-0.92,-0.435047632050623
0.8,-0.92,-0.447296588434072
0.8200000000000001,-0.92,-0.45249141041588503
0.8400000000000001,-0.92,-0.4505501725501738
0.8600000000000001,-0.92,-0.4415034893177196
0.8800000000000001,-0.92,-0.42549403231732463
0.9000000000000001,-0.92,-0.40277428024947076
0.9199999999999999,-0.92,-0.3737025371763908
0.94,-0.92,-0.33873728185296376
0.96,-0.92,-0.2984299372428716
0.98,-0.92,-0.25341617424905616
1.0,-0.92,-0.20440588680384852

-1.0,-0.9,-0.1797471479378297
-0.98,-0.9,-0.11860938449071944
-0.96,-0.9,-0.05560108019637856
-0.94,-0.9,0.008284086347134637
-0.92,-0.9,0.0720386079002803
-0.9,-0.9,0.13465703757306002
-0.88,-0.9,0.19515184532309776
-0.86,-0.9,0.2525689918943286
-0.84,-0.9,0.3060029745859832
-0.8200000000000001,-0.9,0.3546111075711007
-0.8,-0.9,0.39762681155541435
-0.78,-0.9,0.43437170319075546
-0.76,-0.9,0.4642662935857
-0.74,-0.9,0.4868391271915571
-0.72,-0.9,0.5017342169380052
-0.7,-0.9,0.5087166583618475
-0.6799999999999999,-0.9,0.5076763341907222
-0.6599999999999999,-0.9,0.49862965095826794
-0.64,-0.9,0.4817192802632867
-0.62,-0.9,0.4572119087534038
-0.6,-0.9,0.42549403231732436
-0.5800000000000001,-0.9,0.3870658608137862
-0.56,-0.9,0.3425334294632768
-0.54,-0.9,0.29259904131057923
-0.52,-0.9,0.2380501914862192
-0.5,-0.9,0.17974714793782987
-0.48,-0.9,0.1186093844907195
-0.45999999999999996,-0.9,0.05560108019637865
-0.43999999999999995,-0.9,-0.008284086347134526
-0.42000000000000004,-0.9,-0.07203860790028013
-0.4,-0.9,-0.13465703757305997
-0.38,-0.9,-0.19515184532309762
-0.36,-0.9,-0.2525689918943287
-0.33999999999999997,-0.9,-0.30600297458598336
-0.31999999999999995,-0.9,-0.35461110757110087
-0.29999999999999993,-0.9,-0.39762681155541446
-0.28,-0.9,-0.43437170319075535
-0.26,-0.9,-0.46426629358569993
-0.24,-0.9,-0.48683912719155736
-0.21999999999999997,-0.9,-0.5017342169380054
-0.19999999999999996,-0.9,-0.5087166583618474
-0.17999999999999994,-0.9,-0.5076763341907223
-0.16000000000000003,-0.9,-0.498629650958268
-0.14,-0.9,-0.4817192802632868
-0.12,-0.9,-0.45721190875340384
-0.09999999999999998,-0.9,-0.4254940323173244
-0.07999999999999996,-0.9,-0.3870658608137861
-0.05999999999999994,-0.9,-0.3425334294632769
-0.040000000000000036,-0.9,-0.29259904131057934
-0.020000000000000018,-0.9,-0.23805019148621911
0.0,-0.9,-0.17974714793782978
0.020000000000000018,-0.9,-0.11860938449071952
0.040000000000000036,-0.9,-0.05560108019637856
0.06000000000000005,-0.9,0.00828408634713456
0.08000000000000007,-0.9,0.07203860790028022
0.10000000000000009,-0.9,0.13465703757306013
0.1200000000000001,-0.9,0.19515184532309762
0.14000000000000012,-0.9,0.25256899189432863
0.15999999999999992,-0.9,0.3060029745859834
0.17999999999999994,-0.9,0.3546111075711009
0.19999999999999996,-0.9,0.3976268115554145
0.21999999999999997,-0.9,0.43437170319075546
0.24,-0.9,0.4642662935857
0.26,-0.9,0.48683912719155736
0.28,-0.9,0.5017342169380054
0.30000000000000004,-0.9,0.5087166583618475
0.32000000000000006,-0.9,0.5076763341907227
0.3400000000000001,-0.9,0.49862965095826817
0.3600000000000001,-0.9,0.48171928026328664
0.3800000000000001,-0.9,0.45721190875340373
0.40000000000000013,-0.9,0.4254940323173243
0.41999999999999993,-0.9,0.3870658608137863
0.43999999999999995,-0.9,0.3425334294632769
0.45999999999999996,-0.9,0.2925990413105792
0.48,-0.9,0.2380501914862191
0.5,-0.9,0.1797471479378297
0.52,-0.9,0.11860938449071942
0.54,-0.9,0.05560108019637863
0.56,-0.9,-0.008284086347134581
0.5800000000000001,-0.9,-0.07203860790028019
0.6000000000000001,-0.9,-0.13465703757306002
0.6200000000000001,-0.9,-0.1951518453230977
0.6400000000000001,-0.9,-0.25256899189432863
0.6600000000000001,-0.9,-0.30600297458598336
0.6799999999999999,-0.9,-0.35461110757110087
0.7,-0.9,-0.39762681155541424
0.72,-0.9,-0.43437170319075524
0.74,-0.9,-0.46426629358569976
0.76,-0.9,-0.4868391271915571
0.78,-0.9,-0.5017342169380054
0.8,-0.9,-0.5087166583618475
0.8200000000000001,-0.9,-0.5076763341907223
0.8400000000000001,-0.9,-0.49862965095826806
0.8600000000000001,-0.9,-0.4817192802632867
0.8800000000000001,-0.9,-0.4572119087534037
0.9000000000000001,-0.9,-0.42549403231732447
0.9199999999999999,-0.9,-0.3870658608137863
0.94,-0.9,-0.3425334294632769
0.96,-0.9,-0.2925990413105792
0.98,-0.9,-0.23805019148621898
1.0,-0.9,-0.1797471479378297

-1.0,-0.88,-0.15225368917308993
-0.98,-0.88,-0.08317623171662214
-0.96,-0.88,-0.012787035398910716
-0.94,-0.88,0.05780382010564634
-0.92,-0.88,0.1274830748368089
-0.9,-0.88,0.19515184532309776
-0.88,-0.88,0.25974295463057967
-0.86,-0.88,0.32023776238061724
-0.84,-0.88,0.3756822293171462
-0.8200000000000001,-0.88,0.4252019630756581
-0.8,-0.88,0.46801600787312636
-0.78,-0.88,0.5034491606472237
-0.76,-0.88,0.5309426194119629
-0.74,-0.88,0.5500627958988282
-0.72,-0.88,0.5605081535027819
-0.7,-0.88,0.5621139626946555
-0.6799999999999999,-0.88,0.5548548989042301
-0.6599999999999999,-0.88,0.5388454419038351
-0.64,-0.88,0.5143380703939522
-0.62,-0.88,0.48171928026328636
-0.6,-0.88,0.44150348931771904
-0.5800000000000001,-0.88,0.3943249246042106
-0.56,-0.88,0.34092762027140144
-0.54,-0.88,0.2821536837066243
-0.52,-0.88,0.21893001499935288
-0.5,-0.88,0.15225368917309004
-0.48,-0.88,0.08317623171662221
-0.45999999999999996,-0.88,0.012787035398910834
-0.43999999999999995,-0.88,-0.057803820105646185
-0.42000000000000004,-0.88,-0.12748307483680882
-0.4,-0.88,-0.1951518453230976
-0.38,-0.88,-0.25974295463057984
-0.36,-0.88,-0.3202377623806173
-0.33999999999999997,-0.88,-0.37568222931714634
-0.31999999999999995,-0.88,-0.4252019630756582
-0.29999999999999993,-0.88,-0.46801600787312625
-0.28,-0.88,-0.5034491606472233
-0.26,-0.88,-0.5309426194119631
-0.24,-0.88,-0.5500627958988282
-0.21999999999999997,-0.88,-0.5605081535027818
-0.19999999999999996,-0.88,-0.5621139626946555
-0.17999999999999994,-0.88,-0.5548548989042302
-0.16000000000000003,-0.88,-0.5388454419038352
-0.14,-0.88,-0.5143380703939522
-0.12,-0.88,-0.48171928026328636
-0.09999999999999998,-0.88,-0.44150348931771893
-0.07999999999999996,-0.88,-0.39432492460421065
-0.05999999999999994,-0.88,-0.34092762027140155
-0.040000000000000036,-0.88,-0.2821536837066242
-0.020000000000000018,-0.88,-0.21893001499935275
0.0,-0.88,-0.15225368917309004
0.020000000000000018,-0.88,-0.08317623171662217
0.040000000000000036,-0.88,-0.012787035398910806
0.06000000000000005,-0.88,0.057803820105646254
0.08000000000000007,-0.88,0.12748307483680898
0.10000000000000009,-0.88,0.1951518453230976
0.1200000000000001,-0.88,0.25974295463057984
0.14000000000000012,-0.88,0.3202377623806174
0.15999999999999992,-0.88,0.37568222931714634
0.17999999999999994,-0.88,0.42520196307565833
0.19999999999999996,-0.88,0.4680160078731264
0.21999999999999997,-0.88,0.5034491606472236
0.24,-0.88,0.5309426194119631
0.26,-0.88,0.5500627958988283
0.28,-0.88,0.5605081535027818
0.30000000000000004,-0.88,0.562113962694656
0.32000000000000006,-0.88,0.5548548989042305
0.3400000000000001,-0.88,0.538845441903835
0.3600000000000001,-0.88,0.5143380703939521
0.3800000000000001,-0.88,0.48171928026328625
0.40000000000000013,-0.88,0.4415034893177191
0.41999999999999993,-0.88,0.3943249246042107
0.43999999999999995,-0.88,0.3409276202714014
0.45999999999999996,-0.88,0.2821536837066242
0.48,-0.88,0.2189300149993527
0.5,-0.88,0.1522536891730899
0.52,-0.88,0.08317623171662224
0.54,-0.88,0.012787035398910778
0.56,-0.88,-0.05780382010564624
0.5800000000000001,-0.88,-0.1274830748368089
0.6000000000000001,-0.88,-0.1951518453230977
0.6200000000000001,-0.88,-0.2597429546305798
0.6400000000000001,-0.88,-0.32023776238061735
0.6600000000000001,-0.88,-0.3756822293171463
0.6799999999999999,-0.88,-0.42520196307565805
0.7,-0.88,-0.46801600787312614
0.72,-0.88,-0.5034491606472233
0.74,-0.88,-0.5309426194119629
0.76,-0.88,-0.5500627958988283
0.78,-0.88,-0.5605081535027819
0.8,-0.88,-0.5621139626946556
0.8200000000000001,-0.88,-0.5548548989042303
0.8400000000000001,-0.88,-0.5388454419038352
0.8600000000000001,-0.88,-0.5143380703939521
0.8800000000000001,-0.88,-0.4817192802632865
0.9000000000000001,-0.88,-0.44150348931771916
0.9199999999999999,-0.88,-0.3943249246042107
0.94,-0.88,-0.3409276202714014
0.96,-0.88,-0.282153683706624
0.98,-0.88,-0.21893001499935272
1.0,-0.88,-0.15225368917308993

-1.0,-0.86,-0.12235909877814519
-0.98,-0.86,-0.04643134008128129
-0.96,-0.86,0.030228668585402702
-0.94,-0.86,0.10641195309076351
-0.92,-0.86,0.1809170575284638
-0.9,-0.86,0.25256899189432847
-0.88,-0.86,0.3202377623806172
-0.86,-0.86,0.3828561920533973
-0.84,-0.86,0.4394367508702921
-0.8200000000000001,-0.86,0.48908712961917206
-0.8,-0.86,0.5310243121674677
-0.78,-0.86,0.5645869240943339
-0.76,-0.86,0.5892456629603517
-0.74,-0.86,0.6046116457231878
-0.72,-0.86,0.6104425416554786
-0.7,-0.86,0.6066463940451642
-0.6799999999999999,-0.86,0.5932830704077681
-0.6599999999999999,-0.86,0.5705633183399142
-0.64,-0.86,0.5388454419038345
-0.62,-0.86,0.49862965095826733
-0.6,-0.86,0.45055017255017255
-0.5800000000000001,-0.86,0.39536524877533413
-0.56,-0.86,0.33394517884755764
-0.54,-0.86,0.267258593960175
-0.52,-0.86,0.19635718139349512
-0.5,-0.86,0.12235909877814526
-0.48,-0.86,0.0464313400812814
-0.45999999999999996,-0.86,-0.030228668585402543
-0.43999999999999995,-0.86,-0.10641195309076343
-0.42000000000000004,-0.86,-0.18091705752846363
-0.4,-0.86,-0.2525689918943286
-0.38,-0.86,-0.32023776238061724
-0.36,-0.86,-0.38285619205339744
-0.33999999999999997,-0.86,-0.43943675087029227
-0.31999999999999995,-0.86,-0.4890871296191719
-0.29999999999999993,-0.86,-0.5310243121674674
-0.28,-0.86,-0.5645869240943339
-0.26,-0.86,-0.5892456629603519
-0.24,-0.86,-0.6046116457231877
-0.21999999999999997,-0.86,-0.6104425416554783
-0.19999999999999996,-0.86,-0.6066463940451643
-0.17999999999999994,-0.86,-0.5932830704077682
-0.16000000000000003,-0.86,-0.5705633183399142
-0.14,-0.86,-0.5388454419038347
-0.12,-0.86,-0.4986296509582672
-0.09999999999999998,-0.86,-0.4505501725501727
-0.07999999999999996,-0.86,-0.39536524877533424
-0.05999999999999994,-0.86,-0.33394517884755753
-0.040000000000000036,-0.86,-0.2672585939601749
-0.020000000000000018,-0.86,-0.19635718139349512
0.0,-0.86,-0.12235909877814524
0.020000000000000018,-0.86,-0.046431340081281386
0.040000000000000036,-0.86,0.030228668585402612
0.06000000000000005,-0.86,0.10641195309076357
0.08000000000000007,-0.86,0.1809170575284636
0.10000000000000009,-0.86,0.2525689918943286
0.1200000000000001,-0.86,0.3202377623806174
0.14000000000000012,-0.86,0.38285619205339755
0.15999999999999992,-0.86,0.4394367508702923
0.17999999999999994,-0.86,0.4890871296191719
0.19999999999999996,-0.86,0.5310243121674676
0.21999999999999997,-0.86,0.564586924094334
0.24,-0.86,0.5892456629603519
0.26,-0.86,0.6046116457231877
0.28,-0.86,0.610442541655479
0.30000000000000004,-0.86,0.6066463940451643