# vtk DataFile Version 3.0
2D PINN Solution
ASCII
DATASET STRUCTURED_GRID
DIMENSIONS 100 100 1
POINTS 10000 float
-1.0 -1.0 0.0
-0.9797979797979798 -1.0 0.0
-0.9595959595959596 -1.0 0.0
-0.9393939393939394 -1.0 0.0
-0.9191919191919192 -1.0 0.0
-0.898989898989899 -1.0 0.0
-0.8787878787878788 -1.0 0.0
-0.8585858585858586 -1.0 0.0
-0.8383838383838383 -1.0 0.0
-0.8181818181818181 -1.0 0.0
-0.797979797979798 -1.0 0.0
-0.7777777777777778 -1.0 0.0
-0.7575757575757576 -1.0 0.0
-0.7373737373737373 -1.0 0.0
-0.7171717171717171 -1.0 0.0
-0.696969696969697 -1.0 0.0
-0.6767676767676767 -1.0 0.0
-0.6565656565656566 -1.0 0.0
-0.6363636363636364 -1.0 0.0
-0.6161616161616161 -1.0 0.0
-0.5959595959595959 -1.0 0.0
-0.5757575757575757 -1.0 0.0
-0.5555555555555556 -1.0 0.0
-0.5353535353535352 -1.0 0.0
-0.5151515151515151 -1.0 0.0
-0.4949494949494949 -1.0 0.0
-0.4747474747474747 -1.0 0.0
-0.4545454545454545 -1.0 0.0
-0.43434343434343425 -1.0 0.0
-0.41414141414141414 -1.0 0.0
-0.3939393939393939 -1.0 0.0
-0.3737373737373737 -1.0 0.0
-0.3535353535353535 -1.0 0.0
-0.33333333333333326 -1.0 0.0
-0.31313131313131304 -1.0 0.0
-0.2929292929292928 -1.0 0.0
-0.2727272727272727 -1.0 0.0
-0.2525252525252525 -1.0 0.0
-0.23232323232323226 -1.0 0.0
-0.21212121212121204 -1.0 0.0
-0.19191919191919182 -1.0 0.0
-0.1717171717171716 -1.0 0.0
-0.1515151515151515 -1.0 0.0
-0.13131313131313127 -1.0 0.0
-0.11111111111111105 -1.0 0.0
-0.09090909090909083 -1.0 0.0
-0.07070707070707061 -1.0 0.0
-0.050505050505050386 -1.0 0.0
-0.030303030303030276 -1.0 0.0
-0.010101010101010055 -1.0 0.0
0.010101010101010166 -1.0 0.0
0.030303030303030498 -1.0 0.0
0.05050505050505061 -1.0 0.0
0.07070707070707072 -1.0 0.0
0.09090909090909105 -1.0 0.0
0.11111111111111116 -1.0 0.0
0.1313131313131315 -1.0 0.0
0.1515151515151516 -1.0 0.0
0.1717171717171717 -1.0 0.0
0.19191919191919204 -1.0 0.0
0.21212121212121215 -1.0 0.0
0.2323232323232325 -1.0 0.0
0.2525252525252526 -1.0 0.0
0.27272727272727293 -1.0 0.0
0.29292929292929304 -1.0 0.0
0.31313131313131315 -1.0 0.0
0.3333333333333335 -1.0 0.0
0.3535353535353536 -1.0 0.0
0.3737373737373739 -1.0 0.0
0.39393939393939403 -1.0 0.0
0.41414141414141437 -1.0 0.0
0.4343434343434345 -1.0 0.0
0.4545454545454546 -1.0 0.0
0.4747474747474749 -1.0 0.0
0.49494949494949503 -1.0 0.0
0.5151515151515154 -1.0 0.0
0.5353535353535355 -1.0 0.0
0.5555555555555556 -1.0 0.0
0.5757575757575759 -1.0 0.0
0.595959595959596 -1.0 0.0
0.6161616161616164 -1.0 0.0
0.6363636363636365 -1.0 0.0
0.6565656565656568 -1.0 0.0
0.6767676767676769 -1.0 0.0
0.696969696969697 -1.0 0.0
0.7171717171717173 -1.0 0.0
0.7373737373737375 -1.0 0.0
0.7575757575757578 -1.0 0.0
0.7777777777777779 -1.0 0.0
0.7979797979797982 -1.0 0.0
0.8181818181818183 -1.0 0.0
0.8383838383838385 -1.0 0.0
0.8585858585858588 -1.0 0.0
0.8787878787878789 -1.0 0.0
0.8989898989898992 -1.0 0.0
0.9191919191919193 -1.0 0.0
0.9393939393939394 -1.0 0.0
0.9595959595959598 -1.0 0.0
0.9797979797979799 -1.0 0.0
1.0 -1.0 0.0
-1.0 -0.9797979797979798 0.0
-0.9797979797979798 -0.9797979797979798 0.0
-0.9595959595959596 -0.9797979797979798 0.0
-0.9393939393939394 -0.9797979797979798 0.0
-0.9191919191919192 -0.9797979797979798 0.0
-0.898989898989899 -0.9797979797979798 0.0
-0.8787878787878788 -0.9797979797979798 0.0
-0.8585858585858586 -0.9797979797979798 0.0
-0.8383838383838383 -0.9797979797979798 0.0
-0.8181818181818181 -0.9797979797979798 0.0
-0.797979797979798 -0.9797979797979798 0.0
-0.7777777777777778 -0.9797979797979798 0.0
-0.7575757575757576 -0.9797979797979798 0.0
-0.7373737373737373 -0.9797979797979798 0.0
-0.7171717171717171 -0.9797979797979798 0.0
-0.696969696969697 -0.9797979797979798 0.0
-0.6767676767676767 -0.9797979797979798 0.0
-0.6565656565656566 -0.9797979797979798 0.0
-0.6363636363636364 -0.9797979797979798 0.0
-0.6161616161616161 -0.9797979797979798 0.0
-0.5959595959595959 -0.9797979797979798 0.0
-0.5757575757575757 -0.9797979797979798 0.0
-0.5555555555555556 -0.9797979797979798 0.0
-0.5353535353535352 -0.9797979797979798 0.0
-0.5151515151515151 -0.9797979797979798 0.0
-0.4949494949494949 -0.9797979797979798 0.0
-0.4747474747474747 -0.9797979797979798 0.0
-0.4545454545454545 -0.9797979797979798 0.0
-0.43434343434343425 -0.9797979797979798 0.0
-0.41414141414141414 -0.9797979797979798 0.0
-0.3939393939393939 -0.9797979797979798 0.0
-0.3737373737373737 -0.9797979797979798 0.0
-0.3535353535353535 -0.9797979797979798 0.0
-0.33333333333333326 -0.9797979797979798 0.0
-0.31313131313131304 -0.9797979797979798 0.0
-0.2929292929292928 -0.9797979797979798 0.0
-0.2727272727272727 -0.9797979797979798 0.0
-0.2525252525252525 -0.9797979797979798 0.0
-0.23232323232323226 -0.9797979797979798 0.0
-0.21212121212121204 -0.9797979797979798 0.0
-0.19191919191919182 -0.9797979797979798 0.0
-0.1717171717171716 -0.9797979797979798 0.0
-0.1515151515151515 -0.9797979797979798 0.0
-0.13131313131313127 -0.9797979797979798 0.0
-0.11111111111111105 -0.9797979797979798 0.0
-0.09090909090909083 -0.9797979797979798 0.0
-0.07070707070707061 -0.9797979797979798 0.0
-0.050505050505050386 -0.9797979797979798 0.0
-0.030303030303030276 -0.9797979797979798 0.0
-0.010101010101010055 -0.9797979797979798 0.0
0.010101010101010166 -0.9797979797979798 0.0
0.030303030303030498 -0.9797979797979798 0.0
0.05050505050505061 -0.9797979797979798 0.0
0.07070707070707072 -0.9797979797979798 0.0
0.09090909090909105 -0.9797979797979798 0.0
0.11111111111111116 -0.9797979797979798 0.0
0.1313131313131315 -0.9797979797979798 0.0
0.1515151515151516 -0.9797979797979798 0.0
0.1717171717171717 -0.9797979797979798 0.0
0.19191919191919204 -0.9797979797979798 0.0
0.21212121212121215 -0.9797979797979798 0.0
0.2323232323232325 -0.9797979797979798 0.0
0.2525252525252526 -0.9797979797979798 0.0
0.27272727272727293 -0.9797979797979798 0.0
0.29292929292929304 -0.9797979797979798 0.0
0.31313131313131315 -0.9797979797979798 0.0
0.3333333333333335 -0.9797979797979798 0.0
0.3535353535353536 -0.9797979797979798 0.0
0.3737373737373739 -0.9797979797979798 0.0
0.39393939393939403 -0.9797979797979798 0.0
0.41414141414141437 -0.9797979797979798 0.0
0.4343434343434345 -0.9797979797979798 0.0
0.4545454545454546 -0.9797979797979798 0.0
0.4747474747474749 -0.9797979797979798 0.0
0.49494949494949503 -0.9797979797979798 0.0
0.5151515151515154 -0.9797979797979798 0.0
0.5353535353535355 -0.9797979797979798 0.0
0.5555555555555556 -0.9797979797979798 0.0
0.5757575757575759 -0.9797979797979798 0.0
0.595959595959596 -0.9797979797979798 0.0
0.6161616161616164 -0.9797979797979798 0.0
0.6363636363636365 -0.9797979797979798 0.0
0.6565656565656568 -0.9797979797979798 0.0
0.6767676767676769 -0.9797979797979798 0.0
0.696969696969697 -0.9797979797979798 0.0
0.7171717171717173 -0.9797979797979798 0.0
0.7373737373737375 -0.9797979797979798 0.0
0.7575757575757578 -0.9797979797979798 0.0
0.7777777777777779 -0.9797979797979798 0.0
0.7979797979797982 -0.9797979797979798 0.0
0.8181818181818183 -0.9797979797979798 0.0
0.8383838383838385 -0.9797979797979798 0.0
0.8585858585858588 -0.9797979797979798 0.0
0.8787878787878789 -0.9797979797979798 0.0
0.8989898989898992 -0.9797979797979798 0.0
0.9191919191919193 -0.9797979797979798 0.0
0.9393939393939394 -0.9797979797979798 0.0
0.9595959595959598 -0.9797979797979798 0.0
0.9797979797979799 -0.9797979797979798 0.0
1.0 -0.9797979797979798 0.0
-1.0 -0.9595959595959596 0.0
-0.9797979797979798 -0.9595959595959596 0.0
-0.9595959595959596 -0.9595959595959596 0.0
-0.9393939393939394 -0.9595959595959596 0.0
-0.9191919191919192 -0.9595959595959596 0.0
-0.898989898989899 -0.9595959595959596 0.0
-0.8787878787878788 -0.9595959595959596 0.0
-0.8585858585858586 -0.9595959595959596 0.0
-0.8383838383838383 -0.9595959595959596 0.0
-0.8181818181818181 -0.9595959595959596 0.0
-0.797979797979798 -0.9595959595959596 0.0
-0.7777777777777778 -0.9595959595959596 0.0
-0.7575757575757576 -0.9595959595959596 0.0
-0.7373737373737373 -0.9595959595959596 0.0
-0.7171717171717171 -0.9595959595959596 0.0
-0.696969696969697 -0.9595959595959596 0.0
-0.6767676767676767 -0.9595959595959596 0.0
-0.6565656565656566 -0.9595959595959596 0.0
-0.6363636363636364 -0.9595959595959596 0.0
-0.6161616161616161 -0.9595959595959596 0.0
-0.5959595959595959 -0.9595959595959596 0.0
-0.5757575757575757 -0.9595959595959596 0.0
-0.5555555555555556 -0.9595959595959596 0.0
-0.5353535353535352 -0.9595959595959596 0.0
-0.5151515151515151 -0.9595959595959596 0.0
-0.4949494949494949 -0.9595959595959596 0.0
-0.4747474747474747 -0.9595959595959596 0.0
-0.4545454545454545 -0.9595959595959596 0.0
-0.43434343434343425 -0.9595959595959596 0.0
-0.41414141414141414 -0.9595959595959596 0.0
-0.3939393939393939 -0.9595959595959596 0.0
-0.3737373737373737 -0.9595959595959596 0.0
-0.3535353535353535 -0.9595959595959596 0.0
-0.33333333333333326 -0.9595959595959596 0.0
-0.31313131313131304 -0.9595959595959596 0.0
-0.2929292929292928 -0.9595959595959596 0.0
-0.2727272727272727 -0.9595959595959596 0.0
-0.2525252525252525 -0.9595959595959596 0.0
-0.23232323232323226 -0.9595959595959596 0.0
-0.21212121212121204 -0.9595959595959596 0.0
-0.19191919191919182 -0.9595959595959596 0.0
-0.1717171717171716 -0.9595959595959596 0.0
-0.1515151515151515 -0.9595959595959596 0.0
-0.13131313131313127 -0.9595959595959596 0.0
-0.11111111111111105 -0.9595959595959596 0.0
-0.09090909090909083 -0.9595959595959596 0.0
-0.07070707070707061 -0.9595959595959596 0.0
-0.050505050505050386 -0.9595959595959596 0.0
-0.030303030303030276 -0.9595959595959596 0.0
-0.010101010101010055 -0.9595959595959596 0.0
0.010101010101010166 -0.9595959595959596 0.0
0.030303030303030498 -0.9595959595959596 0.0
0.05050505050505061 -0.9595959595959596 0.0
0.07070707070707072 -0.9595959595959596 0.0
0.09090909090909105 -0.9595959595959596 0.0
0.11111111111111116 -0.9595959595959596 0.0
0.1313131313131315 -0.9595959595959596 0.0
0.1515151515151516 -0.9595959595959596 0.0
0.1717171717171717 -0.9595959595959596 0.0
0.19191919191919204 -0.9595959595959596 0.0
0.21212121212121215 -0.9595959595959596 0.0
[...]
POINT_DATA 10000
SCALARS u float 1
LOOKUP_TABLE default
-1.6003847122192383e-05
-2.378225326538086e-05
-3.1381845474243164e-05
-3.860890865325928e-05
-4.5552849769592285e-05
-5.227327346801758e-05
-5.874037742614746e-05
-6.48796558380127e-05
-7.064640522003174e-05
-7.615983486175537e-05
-8.130073547363281e-05
-8.6173415184021e-05
-9.065866470336914e-05
-9.483098983764648e-05
-9.873509407043457e-05
-0.00010231137275695801
-0.00010572373867034912
-0.00010885298252105713
-0.00011184811592102051
-0.00011476874351501465
-0.00011767446994781494
-0.00012056529521942139
-0.00012345612049102783
-0.00012643635272979736
-0.00012946128845214844
-0.00013265013694763184
-0.00013589859008789062
-0.00013914704322814941
-0.0001424551010131836
-0.0001458674669265747
-0.00014919042587280273
-0.00015257298946380615
-0.00015597045421600342
-0.00015944242477416992
-0.00016285479068756104
-0.000166282057762146
-0.00016979873180389404
-0.00017330050468444824
-0.00017677247524261475
-0.0001802593469619751
-0.0001836717128753662
-0.00018690526485443115
-0.00019006431102752686
-0.00019299983978271484
-0.00019578635692596436
-0.00019827485084533691
-0.00020046532154083252
-0.00020240247249603271
-0.00020393729209899902
-0.00020514428615570068
-0.00020600855350494385
-0.00020644068717956543
-0.0002063661813735962
-0.00020591914653778076
-0.0002049654722213745
-0.00020341575145721436
-0.00020144879817962646
-0.00019891560077667236
-0.00019593536853790283
-0.00019243359565734863
-0.0001885443925857544
-0.00018422305583953857
-0.00017972290515899658
-0.00017498433589935303
-0.00017005205154418945
-0.0001650601625442505
-0.00016009807586669922
-0.00015528500080108643
-0.00015060603618621826
-0.00014612078666687012
-0.00014191865921020508
-0.00013811886310577393
-0.0001347064971923828
-0.00013172626495361328
-0.00012923777103424072
-0.0001271665096282959
-0.00012570619583129883
-0.00012473762035369873
-0.00012436509132385254
-0.0001245439052581787
-0.00012530386447906494
-0.00012665987014770508
-0.00012858211994171143
-0.00013108551502227783
-0.00013409554958343506
-0.00013755261898040771
-0.00014144182205200195
-0.00014562904834747314
-0.00015006959438323975
-0.00015465915203094482
-0.00015926361083984375
-0.00016380846500396729
-0.00016808509826660156
-0.00017201900482177734
-0.00017549097537994385
-0.00017848610877990723
-0.0001807957887649536
-0.0001823902130126953
-0.00018322467803955078
-0.00018322467803955078
-1.563131809234619e-05
-2.2739171981811523e-05
-2.9638409614562988e-05
-3.62396240234375e-05
-4.2632222175598145e-05
-4.869699478149414e-05
-5.461275577545166e-05
-6.0245394706726074e-05
-6.563961505889893e-05
-7.067620754241943e-05
-7.547438144683838e-05
-8.004903793334961e-05
-8.429586887359619e-05
-8.819997310638428e-05
-9.192526340484619e-05
-9.53376293182373e-05
-9.854137897491455e-05
-0.00010165572166442871
-0.00010454654693603516
-0.0001074075698852539
-0.0001103132963180542
-0.00011320412158966064
-0.00011628866195678711
-0.0001195073127746582
-0.00012280046939849854
-0.00012630224227905273
-0.00012990832328796387
-0.00013360381126403809
-0.00013746321201324463
-0.00014130771160125732
-0.00014525651931762695
-0.00014919042587280273
-0.0001531541347503662
-0.00015717744827270508
-0.00016117095947265625
-0.0001652240753173828
-0.0001693516969680786
-0.00017355382442474365
-0.0001776963472366333
-0.00018189847469329834
-0.0001860111951828003
-0.000190049409866333
-0.00019399821758270264
-0.0001977980136871338
-0.00020134449005126953
-0.00020462274551391602
-0.0002075880765914917
-0.0002102106809616089
-0.00021246075630187988
-0.00021415948867797852
-0.00021548569202423096
-0.00021627545356750488
-0.00021645426750183105
-0.0002160966396331787
-0.00021506845951080322
-0.00021353363990783691
-0.0002113431692123413
-0.00020854175090789795
-0.00020520389080047607
-0.00020140409469604492
-0.00019723176956176758
-0.0001925826072692871
-0.00018776953220367432
-0.00018277764320373535
-0.00017759203910827637
-0.00017246603965759277
-0.00016736984252929688
-0.0001624077558517456
-0.0001576542854309082
-0.00015316903591156006
-0.00014895200729370117
-0.00014506280422210693
-0.00014153122901916504
-0.00013838708400726318
-0.0001357346773147583
-0.000133514404296875
-0.00013178586959838867
-0.00013048946857452393
-0.00012977421283721924
-0.00012955069541931152
-0.00012989342212677002
-0.0001307278871536255
-0.00013214349746704102
-0.00013412535190582275
-0.00013665854930877686
-0.00013965368270874023
-0.0001431107521057129
-0.00014697015285491943
-0.00015103816986083984
-0.00015544891357421875
-0.0001598745584487915
-0.00016424059867858887
-0.0001685023307800293
-0.00017243623733520508
-0.00017601251602172852
-0.00017908215522766113
-0.0001815706491470337
-0.00018332898616790771
-0.0001842975616455078
-0.00018447637557983398
-1.449882984161377e-05
-2.09808349609375e-05
-2.7194619178771973e-05
-3.318488597869873e-05
-3.8951635360717773e-05
-4.44948673248291e-05
-4.984438419342041e-05
-5.498528480529785e-05
-5.9932470321655273e-05
-6.461143493652344e-05
-6.912648677825928e-05
-7.329881191253662e-05
-7.727742195129395e-05
-8.098781108856201e-05
-8.445978164672852e-05
-8.769333362579346e-05
-9.076297283172607e-05
-9.366869926452637e-05
-9.647011756896973e-05
-9.924173355102539e-05
-0.00010210275650024414
-0.00010506808757781982
-0.00010818243026733398
-0.00011146068572998047
-0.00011500716209411621
-0.00011876225471496582
-0.00012268126010894775
-0.0001267939805984497
-0.00013102591037750244
-0.00013540685176849365
-0.00013974308967590332
-0.00014425814151763916
-0.000148773193359375
-0.00015333294868469238
-0.00015792250633239746
-0.00016257166862487793
-0.00016731023788452148
-0.00017213821411132812
-0.00017699599266052246
-0.00018192827701568604
-0.00018684566020965576
-0.00019174814224243164
-0.00019654631614685059
-0.00020113587379455566
-0.0002055913209915161
-0.00020968914031982422
-0.00021344423294067383
-0.00021673738956451416
-0.00021952390670776367
-0.00022183358669281006
-0.00022342801094055176
-0.00022445619106292725
-0.0002247542142868042
-0.0002244114875793457
-0.00022327899932861328
-0.00022149085998535156
-0.0002190321683883667
-0.00021591782569885254
-0.00021222233772277832
-0.00020802021026611328
-0.00020347535610198975
-0.00019855797290802002
-0.00019353628158569336
-0.00018824636936187744
-0.0001830458641052246
-0.00017783045768737793
-0.00017267465591430664
-0.00016775727272033691
-0.0001630634069442749
-0.00015860795974731445
-0.00015448033809661865
-0.00015066564083099365
-0.00014722347259521484
-0.00014413893222808838
-0.00014144182205200195
-0.0001392364501953125
-0.0001372694969177246
-0.0001357942819595337
-0.0001348555088043213
-0.00013434886932373047
-0.00013431906700134277
-0.00013472139835357666
-0.00013574957847595215
-0.0001372694969177246
-0.00013938546180725098
-0.00014199316501617432
-0.0001450181007385254
-0.00014859437942504883
-0.00015240907669067383
-0.00015650689601898193
-0.00016079843044281006
-0.00016511976718902588
-0.00016924738883972168
-0.000173225998878479
-0.00017684698104858398
-0.00017990171909332275
-0.00018255412578582764
-0.0001843571662902832
-0.00018551945686340332
-0.00018575787544250488
-1.2785196304321289e-05
-1.8611550331115723e-05
-2.4184584617614746e-05
-2.956390380859375e-05
-3.471970558166504e-05
-3.97413969039917e-05
-4.4539570808410645e-05
-4.9173831939697266e-05
-5.3763389587402344e-05
-5.8069825172424316e-05
-6.222724914550781e-05
-6.617605686187744e-05
-6.988644599914551e-05
-7.335841655731201e-05
-7.665157318115234e-05
-7.969141006469727e-05
-8.259713649749756e-05
-8.533895015716553e-05
-8.80211591720581e-05
-9.068846702575684e-05
-9.341537952423096e-05
-9.63360071182251e-05
-9.945034980773926e-05
-0.00010278820991516113
-0.00010645389556884766
-0.00011037290096282959
-0.00011458992958068848
-0.00011903047561645508
-0.00012370944023132324
-0.00012840330600738525
-0.00013336539268493652
-0.0001383274793624878
-0.0001433342695236206
-0.0001484006643295288
-0.0001535564661026001
-0.00015886127948760986
-0.00016424059867858887
-0.00016970932483673096
-0.00017531216144561768
-0.00018097460269927979
-0.00018672645092010498
-0.00019250810146331787
-0.00019818544387817383
-0.000203743577003479
-0.00020907819271087646
-0.00021405518054962158
-0.00021860003471374512
-0.00022266805171966553
-0.0002260357141494751
-0.00022871792316436768
-0.00023069977760314941
-0.00023190677165985107
-0.00023217499256134033
-0.00023168325424194336
-0.00023040175437927246
-0.00022830069065093994
-0.00022536516189575195
-0.00022186338901519775
-0.00021773576736450195
-0.00021310150623321533
-0.0002082139253616333
-0.00020299851894378662
-0.00019766390323638916
-0.00019228458404541016
-0.00018693506717681885
-0.00018170475959777832
-0.00017663836479187012
-0.00017184019088745117
-0.0001672804355621338
-0.00016301870346069336
-0.00015905499458312988
-0.00015541911125183105
-0.00015209615230560303
-0.0001491457223892212
-0.00014653801918029785
-0.00014428794384002686
-0.00014235079288482666
-0.00014081597328186035
-0.00013969838619232178
-0.00013890862464904785
-0.00013865530490875244
-0.0001388341188430786
-0.00013944506645202637
-0.00014066696166992188
-0.00014235079288482666
-0.00014460086822509766
-0.00014731287956237793
-0.00015045702457427979
-0.0001540929079055786
-0.00015798211097717285
-0.0001620650291442871
-0.0001662224531173706
-0.00017036497592926025
-0.00017432868480682373
-0.0001779496669769287
-0.0001811385154724121
-0.0001837313175201416
-0.00018571317195892334
-0.00018684566020965576
-0.00018721818923950195
-1.0415911674499512e-05
-1.564621925354004e-05
-2.065300941467285e-05
-2.54213809967041e-05
-3.001093864440918e-05
-3.452599048614502e-05
-3.884732723236084e-05
-4.3064355850219727e-05
-4.7206878662109375e-05
-5.125999450683594e-05
-5.510449409484863e-05
-5.88148832321167e-05
-6.22868537902832e-05
-6.562471389770508e-05
-6.872415542602539e-05
-7.158517837524414e-05
-7.429718971252441e-05
-7.686018943786621e-05
-7.933378219604492e-05
-8.191168308258057e-05
-8.456408977508545e-05
-8.736550807952881e-05
-9.037554264068604e-05
-9.383261203765869e-05
-9.754300117492676e-05
-0.00010164082050323486
-0.00010611116886138916
-0.00011092424392700195
-0.00011582672595977783
-0.00012104213237762451
-0.00012640655040740967
-0.00013180077075958252
-0.0001372992992401123
-0.00014300644397735596
-0.00014866888523101807
-0.0001544952392578125
-0.00016045570373535156
-0.0001666247844696045
-0.0001729428768157959
-0.00017943978309631348
-0.00018608570098876953
-0.00019274652004241943
-0.00019946694374084473
-0.00020600855350494385
-0.00021232664585113525
-0.00021830201148986816
-0.0002237856388092041
-0.0002285093069076538
-0.00023257732391357422
-0.00023573637008666992
-0.00023791193962097168
-0.00023917853832244873
-0.000239446759223938
-0.00023871660232543945
-0.00023701786994934082
-0.00023442506790161133
-0.00023108720779418945
-0.00022698938846588135
-0.00022238492965698242
-0.00021728873252868652
-0.00021195411682128906
-0.0002063959836959839
-0.00020079314708709717
-0.00019527971744537354
-0.00018984079360961914
-0.00018462538719177246
-0.00017967820167541504
-0.00017498433589935303
-0.0001706331968307495
-0.00016658008098602295
-0.0001628398895263672
-0.00015941262245178223
-0.00015638768672943115
-0.0001535564661026001
-0.00015109777450561523
-0.00014890730381011963
-0.00014704465866088867
-0.00014548003673553467
-0.000144273042678833
-0.00014340877532958984
-0.00014293193817138672
-0.00014282763004302979
-0.00014327466487884521
-0.00014410912990570068
-0.00014548003673553467
-0.00014744699001312256
-0.00014984607696533203
-0.00015279650688171387
-0.00015607476234436035
-0.00015980005264282227
-0.00016370415687561035
-0.0001677870750427246
-0.00017188489437103271
-0.0001757889986038208
-0.00017942488193511963
-0.00018264353275299072
-0.000185355544090271
-0.00018733739852905273
-0.00018860399723052979
-0.00018897652626037598
-7.569789886474609e-06
-1.220405101776123e-05
-1.6614794731140137e-05
-2.084672451019287e-05
-2.492964267730713e-05
-2.89231538772583e-05
-3.288686275482178e-05
-3.668665885925293e-05
-4.045665264129639e-05
-4.419684410095215e-05
-4.781782627105713e-05
-5.1349401473999023e-05
-5.46574592590332e-05
-5.7831406593322754e-05
-6.073713302612305e-05
-6.349384784698486e-05
-6.61611557006836e-05
-6.861984729766846e-05
-7.100403308868408e-05
-7.337331771850586e-05
-7.587671279907227e-05
-7.855892181396484e-05
-8.164346218109131e-05
-8.498132228851318e-05
-8.879601955413818e-05
-9.298324584960938e-05
-9.767711162567139e-05
-0.00010266900062561035
-0.00010801851749420166
-0.00011356174945831299
-0.00011934340000152588
-0.00012536346912384033
-0.0001313239336013794
-0.00013744831085205078
-0.00014366209506988525
-0.0001500844955444336
-0.00015667080879211426
-0.00016345083713531494
-0.0001704692840576172
-0.00017774105072021484
-0.00018525123596191406
-0.00019299983978271484
-0.00020074844360351562
-0.00020851194858551025
-0.0002159327268600464
-0.00022296607494354248
-0.00022935867309570312
-0.00023496150970458984
-0.000239640474319458
-0.00024321675300598145
-0.0002455711364746094
-0.0002468973398208618
-0.00024691224098205566
-0.0002458542585372925
-0.00024366378784179688
-0.00024054944515228271
-0.0002365410327911377
-0.00023186206817626953
-0.000226631760597229
-0.0002209693193435669
-0.00021514296531677246
-0.00020925700664520264
-0.00020335614681243896
-0.00019761919975280762
-0.00019212067127227783
-0.00018687546253204346
-0.00018197298049926758
-0.00017739832401275635
-0.0001731663942337036
-0.00016933679580688477
-0.00016580522060394287
-0.00016261637210845947
-0.00015977025032043457
-0.00015714764595031738
-0.00015495717525482178
-0.00015291571617126465
-0.00015117228031158447
-0.0001497119665145874
-0.00014850497245788574
-0.0001475811004638672
-0.00014697015285491943
-0.00014677643775939941
-0.00014702975749969482
-0.00014764070510864258
-0.0001488327980041504
-0.00015048682689666748
-0.00015267729759216309
-0.00015534460544586182
-0.00015851855278015137
-0.00016202032566070557
-0.00016584992408752441
-0.00016984343528747559
-0.00017380714416503906
-0.0001776665449142456
-0.00018133223056793213
-0.00018456578254699707
-0.00018730759620666504
-0.00018927454948425293
-0.00019055604934692383
-0.00019100308418273926
-4.246830940246582e-06
-8.374452590942383e-06
-1.2233853340148926e-05
-1.595914363861084e-05
-1.952052116394043e-05
-2.308189868927002e-05
-2.6613473892211914e-05
-3.014504909515381e-05
-3.358721733093262e-05
-3.7103891372680664e-05
-4.051625728607178e-05
-4.3898820877075195e-05
-4.713237285614014e-05
-5.0202012062072754e-05
-5.30928373336792e-05
-5.5789947509765625e-05
-5.830824375152588e-05
-6.0677528381347656e-05
-6.298720836639404e-05
-6.528198719024658e-05
-6.766617298126221e-05
-7.02887773513794e-05
-7.325410842895508e-05
-7.668137550354004e-05
-8.049607276916504e-05
-8.490681648254395e-05
-8.970499038696289e-05
-9.499490261077881e-05
-0.00010070204734802246
-0.00010667741298675537
-0.00011292099952697754
-0.00011926889419555664
-0.00012573599815368652
-0.00013239681720733643
-0.00013914704322814941
-0.00014601647853851318
-0.00015310943126678467
-0.00016048550605773926
-0.00016820430755615234
-0.00017623603343963623
-0.000184670090675354
-0.00019340217113494873
-0.00020232796669006348
-0.00021123886108398438
-0.0002200305461883545
-0.00022827088832855225
-0.00023573637008666992
-0.0002422630786895752
-0.0002475827932357788
-0.00025159120559692383
-0.00025409460067749023
-0.00025525689125061035
-0.0002550184726715088
-0.00025343894958496094
-0.0002506822347640991
-0.0002468377351760864
-0.00024215877056121826
-0.00023671984672546387
-0.00023077428340911865
-0.0002245008945465088
-0.000218123197555542
-0.00021167099475860596
-0.00020545721054077148
-0.00019943714141845703
-0.00019371509552001953
-0.00018838047981262207
-0.00018343329429626465
-0.00017890334129333496
-0.0001747608184814453
-0.00017102062702178955
-0.00016768276691436768
-0.00016467273235321045
-0.0001620948314666748
-0.00015974044799804688
-0.0001577436923980713
-0.00015594065189361572
-0.00015442073345184326
-0.00015310943126678467
-0.00015200674533843994
-0.00015118718147277832
-0.0001507103443145752
-0.00015047192573547363
-0.00015063583850860596
-0.00015118718147277832
-0.0001522153615951538
-0.00015369057655334473
-0.0001557469367980957
-0.00015826523303985596
-0.0001612156629562378
-0.0001646280288696289
-0.00016833841800689697
-0.00017224252223968506
-0.0001761913299560547
-0.00018003582954406738
-0.0001837015151977539
-0.00018693506717681885
-0.00018963217735290527
-0.00019168853759765625
-0.0001929551362991333
-0.0001932680606842041
-5.21540641784668e-07
-4.127621650695801e-06
-7.525086402893066e-06
-1.0728836059570312e-05
-1.3947486877441406e-05
-1.7076730728149414e-05
-2.022087574005127e-05
-2.346932888031006e-05
-2.6732683181762695e-05
-3.0055642127990723e-05
-3.33636999130249e-05
-3.667175769805908e-05
-3.984570503234863e-05
-4.2945146560668945e-05
-4.583597183227539e-05
-4.859268665313721e-05
-5.112588405609131e-05
-5.346536636352539e-05
-5.574524402618408e-05
-5.796551704406738e-05
-6.033480167388916e-05
-6.29127025604248e-05
-6.580352783203125e-05
-6.921589374542236e-05
-7.311999797821045e-05
-7.76052474975586e-05
-8.270144462585449e-05
-8.824467658996582e-05
-9.430944919586182e-05
-0.00010071694850921631
-0.00010734796524047852
-0.0001141577959060669
-0.0001211017370223999
-0.00012814998626708984
-0.00013524293899536133
-0.00014257431030273438
-0.0001500844955444336
-0.0001579374074935913
-0.00016617774963378906
-0.00017495453357696533
-0.00018420815467834473
-0.00019404292106628418
-0.00020423531532287598
-0.0002145618200302124
-0.00022473931312561035
-0.00023438036441802979
-0.0002431422472000122
-0.00025056302547454834
-0.00025662779808044434
-0.00026097893714904785
-0.00026366114616394043
-0.0002646148204803467
-0.000263899564743042
-0.00026172399520874023
-0.0002582371234893799
-0.00025360286235809326
-0.0002480745315551758
-0.00024177134037017822
-0.0002349764108657837
-0.00022795796394348145
-0.00022089481353759766
-0.00021384656429290771
-0.00020708143711090088
-0.00020059943199157715
-0.0001945197582244873
-0.00018899142742156982
-0.0001837611198425293
-0.00017915666103363037
-0.00017495453357696533
-0.0001713186502456665
-0.00016807019710540771
-0.00016526877880096436
-0.00016286969184875488
-0.0001608431339263916
-0.00015905499458312988
-0.00015760958194732666
-0.00015644729137420654
-0.00015538930892944336
-0.00015461444854736328
-0.00015406310558319092
-0.00015375018119812012
-0.00015364587306976318
-0.0001538395881652832
-0.0001544952392578125
-0.00015547871589660645
-0.00015693902969360352
-0.0001588761806488037
-0.00016133487224578857
-0.00016421079635620117
-0.00016751885414123535
-0.00017119944095611572
-0.0001750737428665161
-0.00017899274826049805
-0.00018283724784851074
-0.00018647313117980957
-0.00018969178199768066
-0.0001923590898513794
-0.00019440054893493652
-0.00019562244415283203
-0.00019595026969909668
3.546476364135742e-06
4.917383193969727e-07
-2.5033950805664062e-06
-5.319714546203613e-06
-8.091330528259277e-06
-1.0907649993896484e-05
-1.3828277587890625e-05
-1.6808509826660156e-05
-1.996755599975586e-05
-2.3156404495239258e-05
-2.6434659957885742e-05
-2.9712915420532227e-05
-3.3035874366760254e-05
-3.6209821701049805e-05
-3.927946090698242e-05
-4.2125582695007324e-05
-4.4733285903930664e-05
-4.716217517852783e-05
-4.9501657485961914e-05
-5.169212818145752e-05
-5.40614128112793e-05
-5.666911602020264e-05
-5.953013896942139e-05
-6.29723072052002e-05
-6.695091724395752e-05
-7.162988185882568e-05
-7.69197940826416e-05
-8.274614810943604e-05
-8.915364742279053e-05
-9.588897228240967e-05
-0.00010290741920471191
-0.00011008977890014648
-0.00011737644672393799
-0.00012476742267608643
-0.00013221800327301025
-0.00013972818851470947
-0.00014744699001312256
-0.00015558302402496338
-0.00016425549983978271
-0.0001735985279083252
-0.00018368661403656006
-0.00019468367099761963
-0.00020623207092285156
-0.00021813809871673584
-0.00022999942302703857