# vtk DataFile Version 3.0
2D PINN Solution
ASCII
DATASET STRUCTURED_GRID
DIMENSIONS 100 100 1
POINTS 10000 float
-1.0 -1.0 0.0
-0.9797979797979798 -1.0 0.0
-0.9595959595959596 -1.0 0.0
-0.9393939393939394 -1.0 0.0
-0.9191919191919192 -1.0 0.0
-0.898989898989899 -1.0 0.0
-0.8787878787878788 -1.0 0.0
-0.8585858585858586 -1.0 0.0
-0.8383838383838383 -1.0 0.0
-0.8181818181818181 -1.0 0.0
-0.797979797979798 -1.0 0.0
-0.7777777777777778 -1.0 0.0
-0.7575757575757576 -1.0 0.0
-0.7373737373737373 -1.0 0.0
-0.7171717171717171 -1.0 0.0
-0.696969696969697 -1.0 0.0
-0.6767676767676767 -1.0 0.0
-0.6565656565656566 -1.0 0.0
-0.6363636363636364 -1.0 0.0
-0.6161616161616161 -1.0 0.0
-0.5959595959595959 -1.0 0.0
-0.5757575757575757 -1.0 0.0
-0.5555555555555556 -1.0 0.0
-0.5353535353535352 -1.0 0.0
-0.5151515151515151 -1.0 0.0
-0.4949494949494949 -1.0 0.0
-0.4747474747474747 -1.0 0.0
-0.4545454545454545 -1.0 0.0
-0.43434343434343425 -1.0 0.0
-0.41414141414141414 -1.0 0.0
-0.3939393939393939 -1.0 0.0
-0.3737373737373737 -1.0 0.0
-0.3535353535353535 -1.0 0.0
-0.33333333333333326 -1.0 0.0
-0.31313131313131304 -1.0 0.0
-0.2929292929292928 -1.0 0.0
-0.2727272727272727 -1.0 0.0
-0.2525252525252525 -1.0 0.0
-0.23232323232323226 -1.0 0.0
-0.21212121212121204 -1.0 0.0
-0.19191919191919182 -1.0 0.0
-0.1717171717171716 -1.0 0.0
-0.1515151515151515 -1.0 0.0
-0.13131313131313127 -1.0 0.0
-0.11111111111111105 -1.0 0.0
-0.09090909090909083 -1.0 0.0
-0.07070707070707061 -1.0 0.0
-0.050505050505050386 -1.0 0.0
-0.030303030303030276 -1.0 0.0
-0.010101010101010055 -1.0 0.0
0.010101010101010166 -1.0 0.0
0.030303030303030498 -1.0 0.0
0.05050505050505061 -1.0 0.0
0.07070707070707072 -1.0 0.0
0.09090909090909105 -1.0 0.0
0.11111111111111116 -1.0 0.0
0.1313131313131315 -1.0 0.0
0.1515151515151516 -1.0 0.0
0.1717171717171717 -1.0 0.0
0.19191919191919204 -1.0 0.0
0.21212121212121215 -1.0 0.0
0.2323232323232325 -1.0 0.0
0.2525252525252526 -1.0 0.0
0.27272727272727293 -1.0 0.0
0.29292929292929304 -1.0 0.0
0.31313131313131315 -1.0 0.0
0.3333333333333335 -1.0 0.0
0.3535353535353536 -1.0 0.0
0.3737373737373739 -1.0 0.0
0.39393939393939403 -1.0 0.0
0.41414141414141437 -1.0 0.0
0.4343434343434345 -1.0 0.0
0.4545454545454546 -1.0 0.0
0.4747474747474749 -1.0 0.0
0.49494949494949503 -1.0 0.0
0.5151515151515154 -1.0 0.0
0.5353535353535355 -1.0 0.0
0.5555555555555556 -1.0 0.0
0.5757575757575759 -1.0 0.0
0.595959595959596 -1.0 0.0
0.6161616161616164 -1.0 0.0
0.6363636363636365 -1.0 0.0
0.6565656565656568 -1.0 0.0
0.6767676767676769 -1.0 0.0
0.696969696969697 -1.0 0.0
0.7171717171717173 -1.0 0.0
0.7373737373737375 -1.0 0.0
0.7575757575757578 -1.0 0.0
0.7777777777777779 -1.0 0.0
0.7979797979797982 -1.0 0.0
0.8181818181818183 -1.0 0.0
0.8383838383838385 -1.0 0.0
0.8585858585858588 -1.0 0.0
0.8787878787878789 -1.0 0.0
0.8989898989898992 -1.0 0.0
0.9191919191919193 -1.0 0.0
0.9393939393939394 -1.0 0.0
0.9595959595959598 -1.0 0.0
0.9797979797979799 -1.0 0.0
1.0 -1.0 0.0
-1.0 -0.9797979797979798 0.0
-0.9797979797979798 -0.9797979797979798 0.0
-0.9595959595959596 -0.9797979797979798 0.0
-0.9393939393939394 -0.9797979797979798 0.0
-0.9191919191919192 -0.9797979797979798 0.0
-0.898989898989899 -0.9797979797979798 0.0
-0.8787878787878788 -0.9797979797979798 0.0
-0.8585858585858586 -0.9797979797979798 0.0
-0.8383838383838383 -0.9797979797979798 0.0
-0.8181818181818181 -0.9797979797979798 0.0
-0.797979797979798 -0.9797979797979798 0.0
-0.7777777777777778 -0.9797979797979798 0.0
-0.7575757575757576 -0.9797979797979798 0.0
-0.7373737373737373 -0.9797979797979798 0.0
-0.7171717171717171 -0.9797979797979798 0.0
-0.696969696969697 -0.9797979797979798 0.0
-0.6767676767676767 -0.9797979797979798 0.0
-0.6565656565656566 -0.9797979797979798 0.0
-0.6363636363636364 -0.9797979797979798 0.0
-0.6161616161616161 -0.9797979797979798 0.0
-0.5959595959595959 -0.9797979797979798 0.0
-0.5757575757575757 -0.9797979797979798 0.0
-0.5555555555555556 -0.9797979797979798 0.0
-0.5353535353535352 -0.9797979797979798 0.0
-0.5151515151515151 -0.9797979797979798 0.0
-0.4949494949494949 -0.9797979797979798 0.0
-0.4747474747474747 -0.9797979797979798 0.0
-0.4545454545454545 -0.9797979797979798 0.0
-0.43434343434343425 -0.9797979797979798 0.0
-0.41414141414141414 -0.9797979797979798 0.0
-0.3939393939393939 -0.9797979797979798 0.0
-0.3737373737373737 -0.9797979797979798 0.0
-0.3535353535353535 -0.9797979797979798 0.0
-0.33333333333333326 -0.9797979797979798 0.0
-0.31313131313131304 -0.9797979797979798 0.0
-0.2929292929292928 -0.9797979797979798 0.0
-0.2727272727272727 -0.9797979797979798 0.0
-0.2525252525252525 -0.9797979797979798 0.0
-0.23232323232323226 -0.9797979797979798 0.0
-0.21212121212121204 -0.9797979797979798 0.0
-0.19191919191919182 -0.9797979797979798 0.0
-0.1717171717171716 -0.9797979797979798 0.0
-0.1515151515151515 -0.9797979797979798 0.0
-0.13131313131313127 -0.9797979797979798 0.0
-0.11111111111111105 -0.9797979797979798 0.0
-0.09090909090909083 -0.9797979797979798 0.0
-0.07070707070707061 -0.9797979797979798 0.0
-0.050505050505050386 -0.9797979797979798 0.0
-0.030303030303030276 -0.9797979797979798 0.0
-0.010101010101010055 -0.9797979797979798 0.0
0.010101010101010166 -0.9797979797979798 0.0
0.030303030303030498 -0.9797979797979798 0.0
0.05050505050505061 -0.9797979797979798 0.0
0.07070707070707072 -0.9797979797979798 0.0
0.09090909090909105 -0.9797979797979798 0.0
0.11111111111111116 -0.9797979797979798 0.0
0.1313131313131315 -0.9797979797979798 0.0
0.1515151515151516 -0.9797979797979798 0.0
0.1717171717171717 -0.9797979797979798 0.0
0.19191919191919204 -0.9797979797979798 0.0
0.21212121212121215 -0.9797979797979798 0.0
0.2323232323232325 -0.9797979797979798 0.0
0.2525252525252526 -0.9797979797979798 0.0
0.27272727272727293 -0.9797979797979798 0.0
0.29292929292929304 -0.9797979797979798 0.0
0.31313131313131315 -0.9797979797979798 0.0
0.3333333333333335 -0.9797979797979798 0.0
0.3535353535353536 -0.9797979797979798 0.0
0.3737373737373739 -0.9797979797979798 0.0
0.39393939393939403 -0.9797979797979798 0.0
0.41414141414141437 -0.9797979797979798 0.0
0.4343434343434345 -0.9797979797979798 0.0
0.4545454545454546 -0.9797979797979798 0.0
0.4747474747474749 -0.9797979797979798 0.0
0.49494949494949503 -0.9797979797979798 0.0
0.5151515151515154 -0.9797979797979798 0.0
0.5353535353535355 -0.9797979797979798 0.0
0.5555555555555556 -0.9797979797979798 0.0
0.5757575757575759 -0.9797979797979798 0.0
0.595959595959596 -0.9797979797979798 0.0
0.6161616161616164 -0.9797979797979798 0.0
0.6363636363636365 -0.9797979797979798 0.0
0.6565656565656568 -0.9797979797979798 0.0
0.6767676767676769 -0.9797979797979798 0.0
0.696969696969697 -0.9797979797979798 0.0
0.7171717171717173 -0.9797979797979798 0.0
0.7373737373737375 -0.9797979797979798 0.0
0.7575757575757578 -0.9797979797979798 0.0
0.7777777777777779 -0.9797979797979798 0.0
0.7979797979797982 -0.9797979797979798 0.0
0.8181818181818183 -0.9797979797979798 0.0
0.8383838383838385 -0.9797979797979798 0.0
0.8585858585858588 -0.9797979797979798 0.0
0.8787878787878789 -0.9797979797979798 0.0
0.8989898989898992 -0.9797979797979798 0.0
0.9191919191919193 -0.9797979797979798 0.0
0.9393939393939394 -0.9797979797979798 0.0
0.9595959595959598 -0.9797979797979798 0.0
0.9797979797979799 -0.9797979797979798 0.0
1.0 -0.9797979797979798 0.0
-1.0 -0.9595959595959596 0.0
-0.9797979797979798 -0.9595959595959596 0.0
-0.9595959595959596 -0.9595959595959596 0.0
-0.9393939393939394 -0.9595959595959596 0.0
-0.9191919191919192 -0.9595959595959596 0.0
-0.898989898989899 -0.9595959595959596 0.0
-0.8787878787878788 -0.9595959595959596 0.0
-0.8585858585858586 -0.9595959595959596 0.0
-0.8383838383838383 -0.9595959595959596 0.0
-0.8181818181818181 -0.9595959595959596 0.0
-0.797979797979798 -0.9595959595959596 0.0
-0.7777777777777778 -0.9595959595959596 0.0
-0.7575757575757576 -0.9595959595959596 0.0
-0.7373737373737373 -0.9595959595959596 0.0
-0.7171717171717171 -0.9595959595959596 0.0
-0.696969696969697 -0.9595959595959596 0.0
-0.6767676767676767 -0.9595959595959596 0.0
-0.6565656565656566 -0.9595959595959596 0.0
-0.6363636363636364 -0.9595959595959596 0.0
-0.6161616161616161 -0.9595959595959596 0.0
-0.5959595959595959 -0.9595959595959596 0.0
-0.5757575757575757 -0.9595959595959596 0.0
-0.5555555555555556 -0.9595959595959596 0.0
-0.5353535353535352 -0.9595959595959596 0.0
-0.5151515151515151 -0.9595959595959596 0.0
-0.4949494949494949 -0.9595959595959596 0.0
-0.4747474747474747 -0.9595959595959596 0.0
-0.4545454545454545 -0.9595959595959596 0.0
-0.43434343434343425 -0.9595959595959596 0.0
-0.41414141414141414 -0.9595959595959596 0.0
-0.3939393939393939 -0.9595959595959596 0.0
-0.3737373737373737 -0.9595959595959596 0.0
-0.3535353535353535 -0.9595959595959596 0.0
-0.33333333333333326 -0.9595959595959596 0.0
-0.31313131313131304 -0.9595959595959596 0.0
-0.2929292929292928 -0.9595959595959596 0.0
-0.2727272727272727 -0.9595959595959596 0.0
-0.2525252525252525 -0.9595959595959596 0.0
-0.23232323232323226 -0.9595959595959596 0.0
-0.21212121212121204 -0.9595959595959596 0.0
-0.19191919191919182 -0.9595959595959596 0.0
-0.1717171717171716 -0.9595959595959596 0.0
-0.1515151515151515 -0.9595959595959596 0.0
-0.13131313131313127 -0.9595959595959596 0.0
-0.11111111111111105 -0.9595959595959596 0.0
-0.09090909090909083 -0.9595959595959596 0.0
-0.07070707070707061 -0.9595959595959596 0.0
-0.050505050505050386 -0.9595959595959596 0.0
-0.030303030303030276 -0.9595959595959596 0.0
-0.010101010101010055 -0.9595959595959596 0.0
0.010101010101010166 -0.9595959595959596 0.0
0.030303030303030498 -0.9595959595959596 0.0
0.05050505050505061 -0.9595959595959596 0.0
0.07070707070707072 -0.9595959595959596 0.0
0.09090909090909105 -0.9595959595959596 0.0
0.11111111111111116 -0.9595959595959596 0.0
0.1313131313131315 -0.9595959595959596 0.0
0.1515151515151516 -0.9595959595959596 0.0
0.1717171717171717 -0.9595959595959596 0.0
0.19191919191919204 -0.9595959595959596 0.0
0.21212121212121215 -0.9595959595959596 0.0
[...]
POINT_DATA 10000
SCALARS u float 1
LOOKUP_TABLE default
0.00010901689529418945
0.0001051872968673706
0.00010123848915100098
9.714066982269287e-05
9.296834468841553e-05
8.879601955413818e-05
8.447468280792236e-05
8.018314838409424e-05
7.589161396026611e-05
7.170438766479492e-05
6.759166717529297e-05
6.368756294250488e-05
5.9932470321655273e-05
5.631148815155029e-05
5.300343036651611e-05
4.979968070983887e-05
4.686415195465088e-05
4.407763481140137e-05
4.1484832763671875e-05
3.896653652191162e-05
3.6597251892089844e-05
3.431737422943115e-05
3.2082200050354004e-05
2.9996037483215332e-05
2.796947956085205e-05
2.6106834411621094e-05
2.4512410163879395e-05
2.32011079788208e-05
2.2292137145996094e-05
2.1785497665405273e-05
2.1845102310180664e-05
2.2396445274353027e-05
2.3499131202697754e-05
2.5033950805664062e-05
2.6986002922058105e-05
2.9146671295166016e-05
3.147125244140625e-05
3.376603126525879e-05
3.5881996154785156e-05
3.774464130401611e-05
3.9204955101013184e-05
4.012882709503174e-05
4.056096076965332e-05
4.0665268898010254e-05
4.038214683532715e-05
3.992021083831787e-05
3.936886787414551e-05
3.9070844650268555e-05
3.917515277862549e-05
3.9905309677124023e-05
4.145503044128418e-05
4.406273365020752e-05
4.7788023948669434e-05
5.269050598144531e-05
5.879998207092285e-05
6.601214408874512e-05
7.405877113342285e-05
8.276104927062988e-05
9.150803089141846e-05
9.982287883758545e-05
0.00010713934898376465
0.00011280179023742676
0.00011639297008514404
0.00011770427227020264
0.0001166313886642456
0.00011333823204040527
0.000108376145362854
0.00010190904140472412
9.430944919586182e-05
8.58604907989502e-05
7.668137550354004e-05
6.684660911560059e-05
5.663931369781494e-05
4.620850086212158e-05
3.585219383239746e-05
2.5779008865356445e-05
1.627206802368164e-05
7.37607479095459e-06
-7.748603820800781e-07
-8.046627044677734e-06
-1.4439225196838379e-05
-1.963973045349121e-05
-2.3618340492248535e-05
-2.631545066833496e-05
-2.7671456336975098e-05
-2.7924776077270508e-05
-2.7358531951904297e-05
-2.6553869247436523e-05
-2.613663673400879e-05
-2.6807188987731934e-05
-2.9325485229492188e-05
-3.421306610107422e-05
-4.1872262954711914e-05
-5.249679088592529e-05
-6.596744060516357e-05
-8.186697959899902e-05
-9.962916374206543e-05
-0.00011865794658660889
-0.00013814866542816162
-0.00015741586685180664
0.00011278688907623291
0.00010855495929718018
0.00010412931442260742
9.961426258087158e-05
9.503960609436035e-05
9.033083915710449e-05
8.557736873626709e-05
8.083879947662354e-05
7.617473602294922e-05
7.152557373046875e-05
6.702542304992676e-05
6.267428398132324e-05
5.848705768585205e-05
5.459785461425781e-05
5.0887465476989746e-05
4.744529724121094e-05
4.4226646423339844e-05
4.121661186218262e-05
3.8430094718933105e-05
3.579258918762207e-05
3.331899642944336e-05
3.106892108917236e-05
2.886354923248291e-05
2.6881694793701172e-05
2.498924732208252e-05
2.3409724235534668e-05
2.199411392211914e-05
2.0995736122131348e-05
2.0325183868408203e-05
2.0056962966918945e-05
2.022087574005127e-05
2.0891427993774414e-05
2.1904706954956055e-05
2.326071262359619e-05
2.4944543838500977e-05
2.6747584342956543e-05
2.855062484741211e-05
3.0279159545898438e-05
3.1813979148864746e-05
3.2961368560791016e-05
3.382563591003418e-05
3.421306610107422e-05
3.427267074584961e-05
3.3974647521972656e-05
3.3527612686157227e-05
3.2901763916015625e-05
3.2454729080200195e-05
3.2275915145874023e-05
3.246963024139404e-05
3.33935022354126e-05
3.504753112792969e-05
3.765523433685303e-05
4.118680953979492e-05
4.5925378799438477e-05
5.173683166503906e-05
5.860626697540283e-05
6.64442777633667e-05
7.50124454498291e-05
8.390843868255615e-05
9.281933307647705e-05
0.00010100007057189941
0.00010789930820465088
0.00011296570301055908
0.00011585652828216553
0.00011651217937469482
0.00011488795280456543
0.00011131167411804199
0.00010617077350616455
9.967386722564697e-05
9.205937385559082e-05
8.343160152435303e-05
7.401406764984131e-05
6.386637687683105e-05
5.327165126800537e-05
4.2557716369628906e-05
3.202259540557861e-05
2.1979212760925293e-05
1.2636184692382812e-05
4.082918167114258e-06
-3.635883331298828e-06
-1.0311603546142578e-05
-1.5929341316223145e-05
-2.0444393157958984e-05
-2.3797154426574707e-05
-2.5913119316101074e-05
-2.6986002922058105e-05
-2.7179718017578125e-05
-2.7105212211608887e-05
-2.7120113372802734e-05
-2.790987491607666e-05
-3.013014793395996e-05
-3.4332275390625e-05
-4.096329212188721e-05
-5.023181438446045e-05
-6.225705146789551e-05
-7.666647434234619e-05
-9.301304817199707e-05
-0.00011080503463745117
-0.00012934207916259766
-0.00014802813529968262
0.00011511147022247314
0.00011038780212402344
0.00010554492473602295
0.00010052323341369629
9.545683860778809e-05
9.028613567352295e-05
8.516013622283936e-05
8.004903793334961e-05
7.495284080505371e-05
7.000565528869629e-05
6.511807441711426e-05
6.048381328582764e-05
5.599856376647949e-05
5.1841139793395996e-05
4.793703556060791e-05
4.427134990692139e-05
4.088878631591797e-05
3.781914710998535e-05
3.4943222999572754e-05
3.224611282348633e-05
2.9832124710083008e-05
2.7641654014587402e-05
2.5585293769836426e-05
2.3752450942993164e-05
2.2143125534057617e-05
2.0831823348999023e-05
1.96993350982666e-05
1.895427703857422e-05
1.8581748008728027e-05
1.8551945686340332e-05
1.895427703857422e-05
1.9744038581848145e-05
2.0742416381835938e-05
2.205371856689453e-05
2.352893352508545e-05
2.5063753128051758e-05
2.6479363441467285e-05
2.7731060981750488e-05
2.8789043426513672e-05
2.950429916381836e-05
2.9906630516052246e-05
2.9966235160827637e-05
2.9712915420532227e-05
2.925097942352295e-05
2.8789043426513672e-05
2.82973051071167e-05
2.7999281883239746e-05
2.8118491172790527e-05
2.8654932975769043e-05
2.981722354888916e-05
3.173947334289551e-05
3.4436583518981934e-05
3.7983059883117676e-05
4.234910011291504e-05
4.7832727432250977e-05
5.424022674560547e-05
6.152689456939697e-05
6.957352161407471e-05
7.824599742889404e-05
8.71121883392334e-05
9.569525718688965e-05
0.00010338425636291504
0.00010962784290313721
0.00011396408081054688
0.00011610984802246094
0.0001160651445388794
0.00011399388313293457
0.00011020898818969727
0.0001048743724822998
9.82135534286499e-05
9.042024612426758e-05
8.146464824676514e-05
7.158517837524414e-05
6.0886144638061523e-05
4.984438419342041e-05
3.8817524909973145e-05
2.8192996978759766e-05
1.8209218978881836e-05
9.119510650634766e-06
9.238719940185547e-07
-6.183981895446777e-06
-1.2233853340148926e-05
-1.7181038856506348e-05
-2.1025538444519043e-05
-2.3737549781799316e-05
-2.5540590286254883e-05
-2.6538968086242676e-05
-2.7060508728027344e-05
-2.7582049369812012e-05
-2.8580427169799805e-05
-3.078579902648926e-05
-3.454089164733887e-05
-4.0471553802490234e-05
-4.8786401748657227e-05
-5.9545040130615234e-05
-7.259845733642578e-05
-8.77082347869873e-05
-0.00010426342487335205
-0.00012184679508209229
-0.00013978779315948486
0.00011597573757171631
0.00011071562767028809
0.00010532140731811523
9.986758232116699e-05
9.429454803466797e-05
8.872151374816895e-05
8.314847946166992e-05
7.766485214233398e-05
7.222592830657959e-05
6.693601608276367e-05
6.183981895446777e-05
5.696713924407959e-05
5.231797695159912e-05
4.8041343688964844e-05
4.3958425521850586e-05
4.024803638458252e-05
3.6850571632385254e-05
3.3721327781677246e-05
3.090500831604004e-05
2.8342008590698242e-05
2.6047229766845703e-05
2.3990869522094727e-05
2.2143125534057617e-05
2.065300941467285e-05
1.932680606842041e-05
1.8328428268432617e-05
1.7583370208740234e-05
1.7195940017700195e-05
1.7195940017700195e-05
1.749396324157715e-05
1.8134713172912598e-05
1.8998980522155762e-05
2.0176172256469727e-05
2.1442770957946777e-05
2.2798776626586914e-05
2.4124979972839355e-05
2.5331974029541016e-05
2.631545066833496e-05
2.6986002922058105e-05
2.7388334274291992e-05
2.7447938919067383e-05
2.7239322662353516e-05
2.689659595489502e-05
2.6479363441467285e-05
2.60770320892334e-05
2.5928020477294922e-05
2.600252628326416e-05
2.6494264602661133e-05
2.7507543563842773e-05
2.9161572456359863e-05
3.1441450119018555e-05
3.4362077713012695e-05
3.801286220550537e-05
4.225969314575195e-05
4.725158214569092e-05
5.301833152770996e-05
5.9545040130615234e-05
6.681680679321289e-05
7.474422454833984e-05
8.317828178405762e-05
9.165704250335693e-05
9.968876838684082e-05
0.00010666251182556152
0.00011210143566131592
0.00011561810970306396
0.00011698901653289795
0.00011640787124633789
0.00011399388313293457
0.00010995566844940186
0.00010445713996887207
9.754300117492676e-05
8.925795555114746e-05
7.966160774230957e-05
6.905198097229004e-05
5.7816505432128906e-05
4.622340202331543e-05
3.49879264831543e-05
2.4259090423583984e-05
1.4483928680419922e-05
5.707144737243652e-06
-1.9073486328125e-06
-8.493661880493164e-06
-1.3872981071472168e-05
-1.8209218978881836e-05
-2.1502375602722168e-05
-2.384185791015625e-05
-2.5406479835510254e-05
-2.6538968086242676e-05
-2.7492642402648926e-05
-2.8878450393676758e-05
-3.11732292175293e-05
-3.482401371002197e-05
-4.0203332901000977e-05
-4.7773122787475586e-05
-5.754828453063965e-05
-6.954371929168701e-05
-8.343160152435303e-05
-9.897351264953613e-05
-0.00011555850505828857
-0.00013269484043121338
0.0001153796911239624
0.00010946393013000488
0.00010351836681365967
9.75579023361206e-05
9.153783321380615e-05
8.553266525268555e-05
7.958710193634033e-05
7.377564907073975e-05
6.80387020111084e-05
6.246566772460938e-05
5.7220458984375e-05
5.224347114562988e-05
4.7534704208374023e-05
4.315376281738281e-05
3.914535045623779e-05
3.5434961318969727e-05
3.21120023727417e-05
2.911686897277832e-05
2.644956111907959e-05
2.409517765045166e-05
2.2023916244506836e-05
2.0250678062438965e-05
1.8775463104248047e-05
1.7568469047546387e-05
1.6644597053527832e-05
1.601874828338623e-05
1.576542854309082e-05
1.5795230865478516e-05
1.6137957572937012e-05
1.683831214904785e-05
1.774728298187256e-05
1.895427703857422e-05
2.0265579223632812e-05
2.1636486053466797e-05
2.302229404449463e-05
2.421438694000244e-05
2.5257468223571777e-05
2.6032328605651855e-05
2.650916576385498e-05
2.6658177375793457e-05
2.6524066925048828e-05
2.6270747184753418e-05
2.5928020477294922e-05
2.5540590286254883e-05
2.5331974029541016e-05
2.5466084480285645e-05
2.6032328605651855e-05
2.7060508728027344e-05
2.874433994293213e-05
3.096461296081543e-05
3.3795833587646484e-05
3.72081995010376e-05
4.105269908905029e-05
4.534423351287842e-05
5.005300045013428e-05
5.5164098739624023e-05
6.073713302612305e-05
6.699562072753906e-05
7.389485836029053e-05
8.13901424407959e-05
8.9302659034729e-05
9.715557098388672e-05
0.00010445713996887207
0.00011064112186431885
0.00011517107486724854
0.00011786818504333496
0.00011858344078063965
0.00011754035949707031
0.00011484324932098389
0.00011052191257476807
0.00010466575622558594
9.720027446746826e-05
8.818507194519043e-05
7.775425910949707e-05
6.636977195739746e-05
5.4329633712768555e-05
4.240870475769043e-05
3.096461296081543e-05
2.0325183868408203e-05
1.0788440704345703e-05
2.473592758178711e-06
-4.678964614868164e-06
-1.0535120964050293e-05
-1.531839370727539e-05
-1.9088387489318848e-05
-2.187490463256836e-05
-2.403557300567627e-05
-2.562999725341797e-05
-2.707540988922119e-05
-2.8893351554870605e-05
-3.129243850708008e-05
-3.4868717193603516e-05
-4.00543212890625e-05
-4.704296588897705e-05
-5.6117773056030273e-05
-6.714463233947754e-05
-8.018314838409424e-05
-9.47117805480957e-05
-0.00011038780212402344
-0.00012674927711486816
0.00011320412158966064
0.00010664761066436768
0.00010018050670623779
9.368360042572021e-05
8.721649646759033e-05
8.07344913482666e-05
7.449090480804443e-05
6.836652755737305e-05
6.245076656341553e-05
5.677342414855957e-05
5.145370960235596e-05
4.64022159576416e-05
4.169344902038574e-05
3.744661808013916e-05
3.3527612686157227e-05
3.0025839805603027e-05
2.689659595489502e-05
2.4124979972839355e-05
2.174079418182373e-05
1.9684433937072754e-05
1.800060272216797e-05
1.6570091247558594e-05
1.5437602996826172e-05
1.4737248420715332e-05
1.4260411262512207e-05
1.4215707778930664e-05
1.4349818229675293e-05
1.4856457710266113e-05
1.5750527381896973e-05
1.6883015632629395e-05
1.8194317817687988e-05
1.971423625946045e-05
2.1219253540039062e-05
2.275407314300537e-05
2.4184584617614746e-05
2.5391578674316406e-05
2.6360154151916504e-05
2.6986002922058105e-05
2.728402614593506e-05
2.728402614593506e-05
2.7060508728027344e-05
2.6687979698181152e-05
2.633035182952881e-05
2.6106834411621094e-05
2.613663673400879e-05
2.6702880859375e-05
2.7701258659362793e-05
2.944469451904297e-05
3.172457218170166e-05
3.473460674285889e-05
3.828108310699463e-05
4.2304396629333496e-05
4.661083221435547e-05
5.1140785217285156e-05
5.5596232414245605e-05
6.0230493545532227e-05
6.501376628875732e-05
7.006525993347168e-05
7.571280002593994e-05
8.191168308258057e-05
8.876621723175049e-05
9.60230827331543e-05
0.00010311603546142578
0.00010962784290313721
0.00011490285396575928
0.00011861324310302734
0.00012062489986419678
0.0001208186149597168
0.00011944770812988281
0.00011640787124633789
0.00011172890663146973
0.0001051872968673706
9.688735008239746e-05
8.681416511535645e-05
7.541477680206299e-05
6.309151649475098e-05
5.0514936447143555e-05
3.822147846221924e-05
2.6777386665344238e-05
1.6361474990844727e-05
7.241964340209961e-06
-5.364418029785156e-07
-7.063150405883789e-06
-1.2382864952087402e-05
-1.6614794731140137e-05
-1.9863247871398926e-05
-2.244114875793457e-05
-2.4512410163879395e-05
-2.6464462280273438e-05
-2.847611904144287e-05
-3.1113624572753906e-05
-3.471970558166504e-05
-3.9771199226379395e-05
-4.646182060241699e-05
-5.4955482482910156e-05
-6.537139415740967e-05
-7.759034633636475e-05
-9.131431579589844e-05
-0.0001062154769897461
-0.00012187659740447998
0.00010940432548522949
0.00010228157043457031
9.517371654510498e-05
8.814036846160889e-05
8.121132850646973e-05
7.446110248565674e-05
6.793439388275146e-05
6.161630153656006e-05
5.561113357543945e-05
4.991888999938965e-05
4.461407661437988e-05
3.968179225921631e-05
3.5181641578674316e-05
3.108382225036621e-05
2.7447938919067383e-05
2.421438694000244e-05
2.1398067474365234e-05
1.8998980522155762e-05
1.703202724456787e-05
1.5363097190856934e-05
1.4081597328186035e-05
1.3202428817749023e-05
1.259148120880127e-05
1.2382864952087402e-05
1.2487173080444336e-05
1.2934207916259766e-05
1.3738870620727539e-05
1.481175422668457e-05
1.6227364540100098e-05
1.7821788787841797e-05
1.958012580871582e-05
2.1412968635559082e-05
2.327561378479004e-05
2.5033950805664062e-05
2.658367156982422e-05
2.785027027130127e-05
2.872943878173828e-05
2.9221177101135254e-05
2.9414892196655273e-05
2.9295682907104492e-05
2.8893351554870605e-05
2.8461217880249023e-05
2.810359001159668e-05
2.7954578399658203e-05
2.8178095817565918e-05
2.9101967811584473e-05
3.057718276977539e-05
3.282725811004639e-05
3.5881996154785156e-05
3.97413969039917e-05
4.407763481140137e-05
4.8920512199401855e-05
5.385279655456543e-05
5.8770179748535156e-05
6.335973739624023e-05
6.76959753036499e-05
7.174909114837646e-05
7.575750350952148e-05
7.992982864379883e-05
8.477270603179932e-05
9.021162986755371e-05
9.63360071182251e-05
0.00010286271572113037
0.00010924041271209717
0.00011491775512695312
0.00011940300464630127
0.0001223534345626831
0.00012384355068206787
0.0001237243413925171
0.00012199580669403076
0.00011849403381347656
0.00011308491230010986
0.00010569393634796143
9.618699550628662e-05
8.492171764373779e-05
7.243454456329346e-05
5.936622619628906e-05
4.629790782928467e-05
3.3855438232421875e-05
2.251565456390381e-05
1.245737075805664e-05
3.7997961044311523e-06
-3.4421682357788086e-06
-9.328126907348633e-06
-1.405179500579834e-05
-1.780688762664795e-05
-2.0772218704223633e-05
-2.321600914001465e-05
-2.5451183319091797e-05
-2.7865171432495117e-05
-3.0681490898132324e-05
-3.4421682357788086e-05
-3.935396671295166e-05
-4.585087299346924e-05
-5.395710468292236e-05
-6.389617919921875e-05
-7.547438144683838e-05
-8.851289749145508e-05
-0.00010275840759277344
-0.00011785328388214111
0.00010392069816589355
9.615719318389893e-05
8.854269981384277e-05
8.10474157333374e-05
7.380545139312744e-05
6.684660911560059e-05
6.008148193359375e-05
5.37186861038208e-05
4.772841930389404e-05
4.220008850097656e-05
3.7103891372680664e-05
3.2335519790649414e-05
2.816319465637207e-05
2.442300319671631e-05
2.1129846572875977e-05
1.837313175201416e-05
1.6003847122192383e-05
1.4081597328186035e-05
1.2546777725219727e-05
1.1444091796875e-05
1.0699033737182617e-05
1.0356307029724121e-05
1.043081283569336e-05
1.0758638381958008e-05
1.1533498764038086e-05
1.2680888175964355e-05
1.4066696166992188e-05
1.5810132026672363e-05
1.7821788787841797e-05
1.9952654838562012e-05
2.218782901763916e-05
2.4437904357910156e-05
2.6613473892211914e-05
2.855062484741211e-05
3.0174851417541504e-05
3.1501054763793945e-05
3.2320618629455566e-05
3.275275230407715e-05
3.275275230407715e-05
3.2454729080200195e-05
3.196299076080322e-05
3.1381845474243164e-05
3.0875205993652344e-05
3.0800700187683105e-05
3.11434268951416e-05
3.218650817871094e-05
3.406405448913574e-05
3.68654727935791e-05
4.054605960845947e-05
4.507601261138916e-05
5.036592483520508e-05
5.599856376647949e-05
6.175041198730469e-05
6.727874279022217e-05
7.225573062896729e-05
7.665157318115234e-05
8.024275302886963e-05
8.335709571838379e-05
8.626282215118408e-05
8.951127529144287e-05
9.338557720184326e-05
9.818375110626221e-05
0.0001036524772644043
0.00010950863361358643
0.00011517107486724854
0.0001201331615447998
0.00012399256229400635
0.0001264512538909912
0.00012756884098052979
0.0001270771026611328
0.0001249164342880249
0.00012071430683135986
0.00011432170867919922
0.00010561943054199219
9.469687938690186e-05
8.225440979003906e-05
6.872415542602539e-05
5.5029988288879395e-05
4.169344902038574e-05
2.9325485229492188e-05
1.8164515495300293e-05
8.58306884765625e-06
4.917383193969727e-07
-6.154179573059082e-06
-1.1473894119262695e-05
-1.5720725059509277e-05
-1.9147992134094238e-05
-2.1919608116149902e-05
-2.4437904357910156e-05
-2.703070640563965e-05
-3.0100345611572266e-05
-3.390014171600342e-05
-3.886222839355469e-05
-4.519522190093994e-05
-5.3048133850097656e-05
-6.2599778175354e-05
-7.368624210357666e-05
-8.624792098999023e-05
-9.995698928833008e-05
-0.00011451542377471924
9.681284427642822e-05
8.848309516906738e-05
8.03917646408081e-05
7.259845733642578e-05
6.511807441711426e-05
5.8010220527648926e-05
5.131959915161133e-05
4.501640796661377e-05
3.921985626220703e-05
3.3915042877197266e-05
2.911686897277832e-05
2.4810433387756348e-05
2.1070241928100586e-05
1.7821788787841797e-05
1.5079975128173828e-05
1.2814998626708984e-05
1.1041760444641113e-05
9.685754776000977e-06
8.806586265563965e-06
8.240342140197754e-06
8.180737495422363e-06
8.508563041687012e-06
9.208917617797852e-06
1.029670238494873e-05
1.1786818504333496e-05
1.3560056686401367e-05
1.5690922737121582e-05
1.8134713172912598e-05
2.0712614059448242e-05
2.3409724235534668e-05
2.6166439056396484e-05
2.8818845748901367e-05
3.123283386230469e-05
3.337860107421875e-05
3.509223461151123e-05
3.6388635635375977e-05
3.713369369506836e-05
3.7416815757751465e-05
3.723800182342529e-05
3.670156002044678e-05
3.597140312194824e-05
3.522634506225586e-05
3.460049629211426e-05
3.431737422943115e-05
3.46451997756958e-05
3.573298454284668e-05
3.7804245948791504e-05
4.0844082832336426e-05
4.501640796661377e-05
5.0127506256103516e-05
5.614757537841797e-05
6.255507469177246e-05
6.924569606781006e-05
7.559359073638916e-05
8.119642734527588e-05
8.58604907989502e-05
8.939206600189209e-05
9.194016456604004e-05
9.3802809715271e-05
9.560585021972656e-05
9.79006290435791e-05
0.00010110437870025635
0.00010529160499572754
0.00011032819747924805
0.00011561810970306396
0.00012080371379852295
0.000125199556350708
0.00012859702110290527
0.00013077259063720703
0.00013162195682525635
0.00013071298599243164
0.00012788176536560059
0.0001226365566253662
0.00011481344699859619
0.00010453164577484131
9.222328662872314e-05
7.855892181396484e-05
6.428360939025879e-05
5.0187110900878906e-05
3.679096698760986e-05
2.466142177581787e-05
1.3932585716247559e-05