# vtk DataFile Version 3.0
2D PINN Solution
ASCII
DATASET STRUCTURED_GRID
DIMENSIONS 100 100 1
POINTS 10000 float
-1.0 -1.0 0.0
-0.9797979797979798 -1.0 0.0
-0.9595959595959596 -1.0 0.0
-0.9393939393939394 -1.0 0.0
-0.9191919191919192 -1.0 0.0
-0.898989898989899 -1.0 0.0
-0.8787878787878788 -1.0 0.0
-0.8585858585858586 -1.0 0.0
-0.8383838383838383 -1.0 0.0
-0.8181818181818181 -1.0 0.0
-0.797979797979798 -1.0 0.0
-0.7777777777777778 -1.0 0.0
-0.7575757575757576 -1.0 0.0
-0.7373737373737373 -1.0 0.0
-0.7171717171717171 -1.0 0.0
-0.696969696969697 -1.0 0.0
-0.6767676767676767 -1.0 0.0
-0.6565656565656566 -1.0 0.0
-0.6363636363636364 -1.0 0.0
-0.6161616161616161 -1.0 0.0
-0.5959595959595959 -1.0 0.0
-0.5757575757575757 -1.0 0.0
-0.5555555555555556 -1.0 0.0
-0.5353535353535352 -1.0 0.0
-0.5151515151515151 -1.0 0.0
-0.4949494949494949 -1.0 0.0
-0.4747474747474747 -1.0 0.0
-0.4545454545454545 -1.0 0.0
-0.43434343434343425 -1.0 0.0
-0.41414141414141414 -1.0 0.0
-0.3939393939393939 -1.0 0.0
-0.3737373737373737 -1.0 0.0
-0.3535353535353535 -1.0 0.0
-0.33333333333333326 -1.0 0.0
-0.31313131313131304 -1.0 0.0
-0.2929292929292928 -1.0 0.0
-0.2727272727272727 -1.0 0.0
-0.2525252525252525 -1.0 0.0
-0.23232323232323226 -1.0 0.0
-0.21212121212121204 -1.0 0.0
-0.19191919191919182 -1.0 0.0
-0.1717171717171716 -1.0 0.0
-0.1515151515151515 -1.0 0.0
-0.13131313131313127 -1.0 0.0
-0.11111111111111105 -1.0 0.0
-0.09090909090909083 -1.0 0.0
-0.07070707070707061 -1.0 0.0
-0.050505050505050386 -1.0 0.0
-0.030303030303030276 -1.0 0.0
-0.010101010101010055 -1.0 0.0
0.010101010101010166 -1.0 0.0
0.030303030303030498 -1.0 0.0
0.05050505050505061 -1.0 0.0
0.07070707070707072 -1.0 0.0
0.09090909090909105 -1.0 0.0
0.11111111111111116 -1.0 0.0
0.1313131313131315 -1.0 0.0
0.1515151515151516 -1.0 0.0
0.1717171717171717 -1.0 0.0
0.19191919191919204 -1.0 0.0
0.21212121212121215 -1.0 0.0
0.2323232323232325 -1.0 0.0
0.2525252525252526 -1.0 0.0
0.27272727272727293 -1.0 0.0
0.29292929292929304 -1.0 0.0
0.31313131313131315 -1.0 0.0
0.3333333333333335 -1.0 0.0
0.3535353535353536 -1.0 0.0
0.3737373737373739 -1.0 0.0
0.39393939393939403 -1.0 0.0
0.41414141414141437 -1.0 0.0
0.4343434343434345 -1.0 0.0
0.4545454545454546 -1.0 0.0
0.4747474747474749 -1.0 0.0
0.49494949494949503 -1.0 0.0
0.5151515151515154 -1.0 0.0
0.5353535353535355 -1.0 0.0
0.5555555555555556 -1.0 0.0
0.5757575757575759 -1.0 0.0
0.595959595959596 -1.0 0.0
0.6161616161616164 -1.0 0.0
0.6363636363636365 -1.0 0.0
0.6565656565656568 -1.0 0.0
0.6767676767676769 -1.0 0.0
0.696969696969697 -1.0 0.0
0.7171717171717173 -1.0 0.0
0.7373737373737375 -1.0 0.0
0.7575757575757578 -1.0 0.0
0.7777777777777779 -1.0 0.0
0.7979797979797982 -1.0 0.0
0.8181818181818183 -1.0 0.0
0.8383838383838385 -1.0 0.0
0.8585858585858588 -1.0 0.0
0.8787878787878789 -1.0 0.0
0.8989898989898992 -1.0 0.0
0.9191919191919193 -1.0 0.0
0.9393939393939394 -1.0 0.0
0.9595959595959598 -1.0 0.0
0.9797979797979799 -1.0 0.0
1.0 -1.0 0.0
-1.0 -0.9797979797979798 0.0
-0.9797979797979798 -0.9797979797979798 0.0
-0.9595959595959596 -0.9797979797979798 0.0
-0.9393939393939394 -0.9797979797979798 0.0
-0.9191919191919192 -0.9797979797979798 0.0
-0.898989898989899 -0.9797979797979798 0.0
-0.8787878787878788 -0.9797979797979798 0.0
-0.8585858585858586 -0.9797979797979798 0.0
-0.8383838383838383 -0.9797979797979798 0.0
-0.8181818181818181 -0.9797979797979798 0.0
-0.797979797979798 -0.9797979797979798 0.0
-0.7777777777777778 -0.9797979797979798 0.0
-0.7575757575757576 -0.9797979797979798 0.0
-0.7373737373737373 -0.9797979797979798 0.0
-0.7171717171717171 -0.9797979797979798 0.0
-0.696969696969697 -0.9797979797979798 0.0
-0.6767676767676767 -0.9797979797979798 0.0
-0.6565656565656566 -0.9797979797979798 0.0
-0.6363636363636364 -0.9797979797979798 0.0
-0.6161616161616161 -0.9797979797979798 0.0
-0.5959595959595959 -0.9797979797979798 0.0
-0.5757575757575757 -0.9797979797979798 0.0
-0.5555555555555556 -0.9797979797979798 0.0
-0.5353535353535352 -0.9797979797979798 0.0
-0.5151515151515151 -0.9797979797979798 0.0
-0.4949494949494949 -0.9797979797979798 0.0
-0.4747474747474747 -0.9797979797979798 0.0
-0.4545454545454545 -0.9797979797979798 0.0
-0.43434343434343425 -0.9797979797979798 0.0
-0.41414141414141414 -0.9797979797979798 0.0
-0.3939393939393939 -0.9797979797979798 0.0
-0.3737373737373737 -0.9797979797979798 0.0
-0.3535353535353535 -0.9797979797979798 0.0
-0.33333333333333326 -0.9797979797979798 0.0
-0.31313131313131304 -0.9797979797979798 0.0
-0.2929292929292928 -0.9797979797979798 0.0
-0.2727272727272727 -0.9797979797979798 0.0
-0.2525252525252525 -0.9797979797979798 0.0
-0.23232323232323226 -0.9797979797979798 0.0
-0.21212121212121204 -0.9797979797979798 0.0
-0.19191919191919182 -0.9797979797979798 0.0
-0.1717171717171716 -0.9797979797979798 0.0
-0.1515151515151515 -0.9797979797979798 0.0
-0.13131313131313127 -0.9797979797979798 0.0
-0.11111111111111105 -0.9797979797979798 0.0
-0.09090909090909083 -0.9797979797979798 0.0
-0.07070707070707061 -0.9797979797979798 0.0
-0.050505050505050386 -0.9797979797979798 0.0
-0.030303030303030276 -0.9797979797979798 0.0
-0.010101010101010055 -0.9797979797979798 0.0
0.010101010101010166 -0.9797979797979798 0.0
0.030303030303030498 -0.9797979797979798 0.0
0.05050505050505061 -0.9797979797979798 0.0
0.07070707070707072 -0.9797979797979798 0.0
0.09090909090909105 -0.9797979797979798 0.0
0.11111111111111116 -0.9797979797979798 0.0
0.1313131313131315 -0.9797979797979798 0.0
0.1515151515151516 -0.9797979797979798 0.0
0.1717171717171717 -0.9797979797979798 0.0
0.19191919191919204 -0.9797979797979798 0.0
0.21212121212121215 -0.9797979797979798 0.0
0.2323232323232325 -0.9797979797979798 0.0
0.2525252525252526 -0.9797979797979798 0.0
0.27272727272727293 -0.9797979797979798 0.0
0.29292929292929304 -0.9797979797979798 0.0
0.31313131313131315 -0.9797979797979798 0.0
0.3333333333333335 -0.9797979797979798 0.0
0.3535353535353536 -0.9797979797979798 0.0
0.3737373737373739 -0.9797979797979798 0.0
0.39393939393939403 -0.9797979797979798 0.0
0.41414141414141437 -0.9797979797979798 0.0
0.4343434343434345 -0.9797979797979798 0.0
0.4545454545454546 -0.9797979797979798 0.0
0.4747474747474749 -0.9797979797979798 0.0
0.49494949494949503 -0.9797979797979798 0.0
0.5151515151515154 -0.9797979797979798 0.0
0.5353535353535355 -0.9797979797979798 0.0
0.5555555555555556 -0.9797979797979798 0.0
0.5757575757575759 -0.9797979797979798 0.0
0.595959595959596 -0.9797979797979798 0.0
0.6161616161616164 -0.9797979797979798 0.0
0.6363636363636365 -0.9797979797979798 0.0
0.6565656565656568 -0.9797979797979798 0.0
0.6767676767676769 -0.9797979797979798 0.0
0.696969696969697 -0.9797979797979798 0.0
0.7171717171717173 -0.9797979797979798 0.0
0.7373737373737375 -0.9797979797979798 0.0
0.7575757575757578 -0.9797979797979798 0.0
0.7777777777777779 -0.9797979797979798 0.0
0.7979797979797982 -0.9797979797979798 0.0
0.8181818181818183 -0.9797979797979798 0.0
0.8383838383838385 -0.9797979797979798 0.0
0.8585858585858588 -0.9797979797979798 0.0
0.8787878787878789 -0.9797979797979798 0.0
0.8989898989898992 -0.9797979797979798 0.0
0.9191919191919193 -0.9797979797979798 0.0
0.9393939393939394 -0.9797979797979798 0.0
0.9595959595959598 -0.9797979797979798 0.0
0.9797979797979799 -0.9797979797979798 0.0
1.0 -0.9797979797979798 0.0
-1.0 -0.9595959595959596 0.0
-0.9797979797979798 -0.9595959595959596 0.0
-0.9595959595959596 -0.9595959595959596 0.0
-0.9393939393939394 -0.9595959595959596 0.0
-0.9191919191919192 -0.9595959595959596 0.0
-0.898989898989899 -0.9595959595959596 0.0
-0.8787878787878788 -0.9595959595959596 0.0
-0.8585858585858586 -0.9595959595959596 0.0
-0.8383838383838383 -0.9595959595959596 0.0
-0.8181818181818181 -0.9595959595959596 0.0
-0.797979797979798 -0.9595959595959596 0.0
-0.7777777777777778 -0.9595959595959596 0.0
-0.7575757575757576 -0.9595959595959596 0.0
-0.7373737373737373 -0.9595959595959596 0.0
-0.7171717171717171 -0.9595959595959596 0.0
-0.696969696969697 -0.9595959595959596 0.0
-0.6767676767676767 -0.9595959595959596 0.0
-0.6565656565656566 -0.9595959595959596 0.0
-0.6363636363636364 -0.9595959595959596 0.0
-0.6161616161616161 -0.9595959595959596 0.0
-0.5959595959595959 -0.9595959595959596 0.0
-0.5757575757575757 -0.9595959595959596 0.0
-0.5555555555555556 -0.9595959595959596 0.0
-0.5353535353535352 -0.9595959595959596 0.0
-0.5151515151515151 -0.9595959595959596 0.0
-0.4949494949494949 -0.9595959595959596 0.0
-0.4747474747474747 -0.9595959595959596 0.0
-0.4545454545454545 -0.9595959595959596 0.0
-0.43434343434343425 -0.9595959595959596 0.0
-0.41414141414141414 -0.9595959595959596 0.0
-0.3939393939393939 -0.9595959595959596 0.0
-0.3737373737373737 -0.9595959595959596 0.0
-0.3535353535353535 -0.9595959595959596 0.0
-0.33333333333333326 -0.9595959595959596 0.0
-0.31313131313131304 -0.9595959595959596 0.0
-0.2929292929292928 -0.9595959595959596 0.0
-0.2727272727272727 -0.9595959595959596 0.0
-0.2525252525252525 -0.9595959595959596 0.0
-0.23232323232323226 -0.9595959595959596 0.0
-0.21212121212121204 -0.9595959595959596 0.0
-0.19191919191919182 -0.9595959595959596 0.0
-0.1717171717171716 -0.9595959595959596 0.0
-0.1515151515151515 -0.9595959595959596 0.0
-0.13131313131313127 -0.9595959595959596 0.0
-0.11111111111111105 -0.9595959595959596 0.0
-0.09090909090909083 -0.9595959595959596 0.0
-0.07070707070707061 -0.9595959595959596 0.0
-0.050505050505050386 -0.9595959595959596 0.0
-0.030303030303030276 -0.9595959595959596 0.0
-0.010101010101010055 -0.9595959595959596 0.0
0.010101010101010166 -0.9595959595959596 0.0
0.030303030303030498 -0.9595959595959596 0.0
0.05050505050505061 -0.9595959595959596 0.0
0.07070707070707072 -0.9595959595959596 0.0
0.09090909090909105 -0.9595959595959596 0.0
0.11111111111111116 -0.9595959595959596 0.0
0.1313131313131315 -0.9595959595959596 0.0
0.1515151515151516 -0.9595959595959596 0.0
0.1717171717171717 -0.9595959595959596 0.0
0.19191919191919204 -0.9595959595959596 0.0
0.21212121212121215 -0.9595959595959596 0.0
[...]
POINT_DATA 10000
SCALARS u float 1
LOOKUP_TABLE default
-0.00010862946510314941
-0.00012004375457763672
-0.00013059377670288086
-0.0001402348279953003
-0.0001490861177444458
-0.00015746057033538818
-0.00016549229621887207
-0.0001735687255859375
-0.00018189847469329834
-0.00019061565399169922
-0.00019980967044830322
-0.00020942091941833496
-0.00021941959857940674
-0.00022955238819122314
-0.000239640474319458
-0.00024944543838500977
-0.00025872886180877686
-0.0002671778202056885
-0.0002745687961578369
-0.00028082728385925293
-0.00028568506240844727
-0.00028908252716064453
-0.0002910047769546509
-0.000291481614112854
-0.00029055774211883545
-0.00028842687606811523
-0.0002851337194442749
-0.00028079748153686523
-0.0002757757902145386
-0.0002700239419937134
-0.00026370584964752197
-0.0002570897340774536
-0.00025022029876708984
-0.000243261456489563
-0.00023636221885681152
-0.00022949278354644775
-0.000222817063331604
-0.00021630525588989258
-0.00021001696586608887
-0.00020393729209899902
-0.00019790232181549072
-0.0001919865608215332
-0.00018605589866638184
-0.00018003582954406738
-0.0001739412546157837
-0.00016763806343078613
-0.00016117095947265625
-0.00015451014041900635
-0.00014761090278625488
-0.00014071166515350342
-0.00013381242752075195
-0.00012703239917755127
-0.00012049078941345215
-0.00011436641216278076
-0.00010879337787628174
-0.00010390579700469971
-9.976327419281006e-05
-9.644031524658203e-05
-9.392201900482178e-05
-9.216368198394775e-05
-9.113550186157227e-05
-9.074807167053223e-05
-9.071826934814453e-05
-9.107589721679688e-05
-9.168684482574463e-05
-9.238719940185547e-05
-9.304285049438477e-05
-9.366869926452637e-05
-9.423494338989258e-05
-9.47117805480957e-05
-9.509921073913574e-05
-9.535253047943115e-05
-9.556114673614502e-05
-9.581446647644043e-05
-9.60230827331543e-05
-9.629130363464355e-05
-9.655952453613281e-05
-9.675323963165283e-05
-9.69916582107544e-05
-9.718537330627441e-05
-9.73045825958252e-05
-9.734928607940674e-05
-9.72747802734375e-05
-9.721517562866211e-05
-9.705126285552979e-05
-9.687244892120361e-05
-9.673833847045898e-05
-9.66787338256836e-05
-9.670853614807129e-05
-9.703636169433594e-05
-9.766221046447754e-05
-9.864568710327148e-05
-0.00010013580322265625
-0.00010207295417785645
-0.0001046210527420044
-0.00010770559310913086
-0.00011150538921356201
-0.00011594593524932861
-0.00012092292308807373
-0.00012639164924621582
-0.0001182854175567627
-0.00012996792793273926
-0.0001405179500579834
-0.00014992058277130127
-0.00015851855278015137
-0.00016647577285766602
-0.00017412006855010986
-0.00018161535263061523
-0.0001894235610961914
-0.00019758939743041992
-0.00020606815814971924
-0.00021500885486602783
-0.00022423267364501953
-0.00023356080055236816
-0.00024284422397613525
-0.00025172531604766846
-0.000260084867477417
-0.00026772916316986084
-0.0002743750810623169
-0.00027996301651000977
-0.00028440356254577637
-0.0002875328063964844
-0.00028936564922332764
-0.0002899765968322754
-0.00028918683528900146
-0.0002873539924621582
-0.000284343957901001
-0.00028042495250701904
-0.0002755969762802124
-0.0002699941396713257
-0.00026385486125946045
-0.00025725364685058594
-0.00025025010108947754
-0.00024318695068359375
-0.00023597478866577148
-0.00022886693477630615
-0.0002218782901763916
-0.00021509826183319092
-0.0002084672451019287
-0.00020207464694976807
-0.0001957416534423828
-0.00018952786922454834
-0.00018332898616790771
-0.00017699599266052246
-0.00017052888870239258
-0.00016389787197113037
-0.0001569986343383789
-0.00014995038509368896
-0.000142708420753479
-0.00013534724712371826
-0.00012792646884918213
-0.00012069940567016602
-0.00011366605758666992
-0.0001071542501449585
-0.00010119378566741943
-9.591877460479736e-05
-9.156763553619385e-05
-8.803606033325195e-05
-8.547306060791016e-05
-8.375942707061768e-05
-8.282065391540527e-05
-8.259713649749756e-05
-8.289515972137451e-05
-8.353590965270996e-05
-8.438527584075928e-05
-8.536875247955322e-05
-8.635222911834717e-05
-8.720159530639648e-05
-8.787214756011963e-05
-8.842349052429199e-05
-8.888542652130127e-05
-8.918344974517822e-05
-8.940696716308594e-05
-8.954107761383057e-05
-8.974969387054443e-05
-8.989870548248291e-05
-9.006261825561523e-05
-9.025633335113525e-05
-9.034574031829834e-05
-9.049475193023682e-05
-9.045004844665527e-05
-9.037554264068604e-05
-9.021162986755371e-05
-8.989870548248291e-05
-8.952617645263672e-05
-8.89897346496582e-05
-8.849799633026123e-05
-8.796155452728271e-05
-8.751451969146729e-05
-8.729100227355957e-05
-8.726119995117188e-05
-8.757412433624268e-05
-8.83936882019043e-05
-8.96155834197998e-05
-9.153783321380615e-05
-9.40859317779541e-05
-9.728968143463135e-05
-0.00010125339031219482
-0.00010590255260467529
-0.00011119246482849121
-0.0001283884048461914
-0.00014010071754455566
-0.00015044212341308594
-0.0001595616340637207
-0.00016769766807556152
-0.00017514824867248535
-0.00018212199211120605
-0.00018894672393798828
-0.00019598007202148438
-0.00020325183868408203
-0.00021094083786010742
-0.0002190321683883667
-0.00022736191749572754
-0.00023576617240905762
-0.00024412572383880615
-0.0002522021532058716
-0.0002597421407699585
-0.00026664137840270996
-0.0002727806568145752
-0.00027792155742645264
-0.0002821385860443115
-0.00028517842292785645
-0.00028705596923828125
-0.00028787553310394287
-0.00028745830059051514
-0.00028596818447113037
-0.0002833753824234009
-0.00027973949909210205
-0.0002752542495727539
-0.0002698153257369995
-0.0002638101577758789
-0.0002572089433670044
-0.0002501457929611206
-0.0002428889274597168
-0.00023558735847473145
-0.00022818148136138916
-0.0002209693193435669
-0.00021392107009887695
-0.00020697712898254395
-0.00020028650760650635
-0.00019370019435882568
-0.00018721818923950195
-0.00018070638179779053
-0.00017409026622772217
-0.00016731023788452148
-0.00016036629676818848
-0.0001531541347503662
-0.00014570355415344238
-0.00013810396194458008
-0.0001302659511566162
-0.0001224726438522339
-0.00011470913887023926
-0.00010731816291809082
-0.00010028481483459473
-9.392201900482178e-05
-8.83936882019043e-05
-8.371472358703613e-05
-8.006393909454346e-05
-7.742643356323242e-05
-7.575750350952148e-05
-7.49826431274414e-05
-7.496774196624756e-05
-7.551908493041992e-05
-7.647275924682617e-05
-7.770955562591553e-05
-7.896125316619873e-05
-8.021295070648193e-05
-8.128583431243896e-05
-8.216500282287598e-05
-8.282065391540527e-05
-8.32974910736084e-05
-8.362531661987305e-05
-8.380413055419922e-05
-8.396804332733154e-05
-8.401274681091309e-05
-8.404254913330078e-05
-8.414685726165771e-05
-8.42362642288208e-05
-8.42660665512085e-05
-8.428096771240234e-05
-8.425116539001465e-05
-8.407235145568848e-05
-8.378922939300537e-05
-8.32676887512207e-05
-8.26716423034668e-05
-8.195638656616211e-05
-8.112192153930664e-05
-8.028745651245117e-05
-7.936358451843262e-05
-7.861852645874023e-05
-7.806718349456787e-05
-7.772445678710938e-05
-7.782876491546631e-05
-7.835030555725098e-05
-7.958710193634033e-05
-8.13603401184082e-05
-8.390843868255615e-05
-8.721649646759033e-05
-9.135901927947998e-05
-9.627640247344971e-05
-0.00013841688632965088
-0.00014993548393249512
-0.00015994906425476074
-0.00016869604587554932
-0.00017625093460083008
-0.0001830458641052246
-0.00018927454948425293
-0.00019532442092895508
-0.0002014636993408203
-0.0002078413963317871
-0.00021454691886901855
-0.00022161006927490234
-0.00022897124290466309
-0.0002364814281463623
-0.00024394690990447998
-0.00025115907192230225
-0.00025801360607147217
-0.0002644062042236328
-0.0002700537443161011
-0.00027498602867126465
-0.00027905404567718506
-0.0002821385860443115
-0.00028432905673980713
-0.0002853870391845703
-0.0002853870391845703
-0.00028432905673980713
-0.00028210878372192383
-0.00027883052825927734
-0.0002746880054473877
-0.0002695620059967041
-0.00026363134384155273
-0.00025710463523864746
-0.00025004148483276367
-0.0002426058053970337
-0.00023514032363891602
-0.0002275407314300537
-0.0002200305461883545
-0.0002126842737197876
-0.00020557641983032227
-0.00019855797290802002
-0.00019171833992004395
-0.0001849532127380371
-0.00017823278903961182
-0.00017133355140686035
-0.00016427040100097656
-0.00015707314014434814
-0.00014957785606384277
-0.0001417696475982666
-0.00013373792171478271
-0.00012555718421936035
-0.00011736154556274414
-0.00010918080806732178
-0.00010135769844055176
-9.389221668243408e-05
-8.717179298400879e-05
-8.124113082885742e-05
-7.635354995727539e-05
-7.25090503692627e-05
-6.979703903198242e-05
-6.815791130065918e-05
-6.754696369171143e-05
-6.777048110961914e-05
-6.866455078125e-05
-7.002055644989014e-05
-7.160007953643799e-05
-7.319450378417969e-05
-7.4729323387146e-05
-7.607042789459229e-05
-7.712841033935547e-05
-7.79181718826294e-05
-7.838010787963867e-05
-7.864832878112793e-05
-7.875263690948486e-05
-7.884204387664795e-05
-7.87973403930664e-05
-7.878243923187256e-05
-7.876753807067871e-05
-7.873773574829102e-05
-7.869303226470947e-05
-7.867813110351562e-05
-7.852911949157715e-05
-7.826089859008789e-05
-7.787346839904785e-05
-7.733702659606934e-05
-7.65770673751831e-05
-7.56978988647461e-05
-7.462501525878906e-05
-7.346272468566895e-05
-7.228553295135498e-05
-7.100403308868408e-05
-6.99460506439209e-05
-6.912648677825928e-05
-6.854534149169922e-05
-6.842613220214844e-05
-6.882846355438232e-05
-6.987154483795166e-05
-7.162988185882568e-05
-7.422268390655518e-05
-7.769465446472168e-05
-8.206069469451904e-05
-0.00014799833297729492
-0.0001592189073562622
-0.0001688152551651001
-0.0001770108938217163
-0.00018396973609924316
-0.0001900792121887207
-0.0001955181360244751
-0.00020068883895874023
-0.00020587444305419922
-0.00021122395992279053
-0.00021696090698242188
-0.00022304058074951172
-0.00022938847541809082
-0.0002359449863433838
-0.0002425462007522583
-0.00024902820587158203
-0.00025525689125061035
-0.0002611130475997925
-0.0002664923667907715
-0.0002712458372116089
-0.00027529895305633545
-0.0002786219120025635
-0.0002810359001159668
-0.00028249621391296387
-0.0002829134464263916
-0.00028227269649505615
-0.00028061866760253906
-0.0002778172492980957
-0.00027395784854888916
-0.00026911497116088867
-0.00026339292526245117
-0.00025688111782073975
-0.0002498626708984375
-0.00024236738681793213
-0.00023467838764190674
-0.00022689998149871826
-0.00021916627883911133
-0.00021161139011383057
-0.00020420551300048828
-0.00019699335098266602
-0.00018994510173797607
-0.00018294155597686768
-0.0001758784055709839
-0.0001687854528427124
-0.0001614689826965332
-0.00015403330326080322
-0.00014625489711761475
-0.00013814866542816162
-0.00012984871864318848
-0.00012131035327911377
-0.00011266767978668213
-0.00010415911674499512
-9.587407112121582e-05
-8.803606033325195e-05
-8.089840412139893e-05
-7.46697187423706e-05
-6.949901580810547e-05
-6.54757022857666e-05
-6.271898746490479e-05
-6.115436553955078e-05
-6.0677528381347656e-05
-6.113946437835693e-05
-6.237626075744629e-05
-6.407499313354492e-05
-6.601214408874512e-05
-6.802380084991455e-05
-6.990134716033936e-05
-7.145106792449951e-05
-7.273256778717041e-05
-7.358193397521973e-05
-7.413327693939209e-05
-7.434189319610596e-05
-7.432699203491211e-05
-7.432699203491211e-05
-7.413327693939209e-05
-7.399916648864746e-05
-7.382035255432129e-05
-7.370114326477051e-05
-7.361173629760742e-05
-7.346272468566895e-05
-7.326900959014893e-05
-7.294118404388428e-05
-7.25090503692627e-05
-7.186830043792725e-05
-7.107853889465332e-05
-7.003545761108398e-05
-6.884336471557617e-05
-6.747245788574219e-05
-6.595253944396973e-05
-6.443262100219727e-05
-6.295740604400635e-05
-6.16610050201416e-05
-6.052851676940918e-05
-5.9723854064941406e-05
-5.94407320022583e-05
-5.97834587097168e-05
-6.078183650970459e-05
-6.2599778175354e-05
-6.529688835144043e-05
-6.891787052154541e-05
-0.00015690922737121582
-0.00016766786575317383
-0.0001767873764038086
-0.0001844167709350586
-0.00019074976444244385
-0.00019612908363342285
-0.00020080804824829102
-0.00020515918731689453
-0.00020937621593475342
-0.00021375715732574463
-0.0002184361219406128
-0.0002234429121017456
-0.0002288222312927246
-0.00023442506790161133
-0.00024023652076721191
-0.00024606287479400635
-0.00025169551372528076
-0.00025710463523864746
-0.00026229023933410645
-0.0002669990062713623
-0.0002711564302444458
-0.0002747178077697754
-0.0002774447202682495
-0.0002792924642562866
-0.000280231237411499
-0.0002801567316055298
-0.0002789050340652466
-0.00027664005756378174
-0.00027310848236083984
-0.00026857852935791016
-0.0002630650997161865
-0.00025665760040283203
-0.00024959444999694824
-0.00024209916591644287
-0.000234261155128479
-0.0002263188362121582
-0.00021842122077941895
-0.00021061301231384277
-0.00020296871662139893
-0.0001954883337020874
-0.0001882016658782959
-0.0001809448003768921
-0.00017376244068145752
-0.00016641616821289062
-0.0001589953899383545
-0.0001513063907623291
-0.00014327466487884521
-0.00013494491577148438
-0.00012630224227905273
-0.00011746585369110107
-0.00010854005813598633
-9.961426258087158e-05
-9.09268856048584e-05
-8.271634578704834e-05
-7.520616054534912e-05
-6.859004497528076e-05
-6.318092346191406e-05
-5.8978796005249023e-05
-5.614757537841797e-05
-5.462765693664551e-05
-5.4255127906799316e-05
-5.501508712768555e-05
-5.657970905303955e-05
-5.8650970458984375e-05
-6.107985973358154e-05
-6.344914436340332e-05
-6.562471389770508e-05
-6.750226020812988e-05
-6.891787052154541e-05
-6.990134716033936e-05
-7.037818431854248e-05
-7.061660289764404e-05
-7.05718994140625e-05
-7.030367851257324e-05
-7.003545761108398e-05
-6.966292858123779e-05
-6.935000419616699e-05
-6.911158561706543e-05
-6.882846355438232e-05
-6.857514381408691e-05
-6.836652755737305e-05
-6.802380084991455e-05
-6.748735904693604e-05
-6.684660911560059e-05
-6.599724292755127e-05
-6.489455699920654e-05
-6.35683536529541e-05
-6.206333637237549e-05
-6.045401096343994e-05
-5.8650970458984375e-05
-5.692243576049805e-05
-5.5149197578430176e-05
-5.359947681427002e-05
-5.233287811279297e-05
-5.1409006118774414e-05
-5.105137825012207e-05
-5.1334500312805176e-05
-5.239248275756836e-05
-5.435943603515625e-05
-5.7190656661987305e-05
-0.00016508996486663818
-0.00017526745796203613
-0.00018383562564849854
-0.00019085407257080078
-0.00019657611846923828
-0.00020125508308410645
-0.00020517408847808838
-0.00020866096019744873
-0.00021201372146606445
-0.00021545588970184326
-0.00021910667419433594
-0.0002231299877166748
-0.00022755563259124756
-0.00023226439952850342
-0.00023728609085083008
-0.00024239718914031982
-0.00024756789207458496
-0.00025272369384765625
-0.00025770068168640137
-0.0002624392509460449
-0.00026673078536987305
-0.0002704709768295288
-0.00027364492416381836
-0.0002759397029876709
-0.00027740001678466797
-0.000277787446975708
-0.00027711689472198486
-0.00027523934841156006
-0.0002721548080444336
-0.00026789307594299316
-0.00026257336139678955
-0.0002563297748565674
-0.00024937093257904053
-0.00024181604385375977
-0.00023387372493743896
-0.00022581219673156738
-0.00021770596504211426
-0.00020965933799743652
-0.0002017766237258911
-0.00019411742687225342
-0.00018662214279174805
-0.00017914175987243652
-0.00017175078392028809
-0.00016430020332336426
-0.00015667080879211426
-0.000148773193359375
-0.00014060735702514648
-0.00013206899166107178
-0.00012324750423431396
-0.0001141577959060669
-0.00010484457015991211
-9.563565254211426e-05
-8.657574653625488e-05
-7.800757884979248e-05
-7.008016109466553e-05
-6.318092346191406e-05
-5.741417407989502e-05
-5.2988529205322266e-05
-5.005300045013428e-05
-4.8547983169555664e-05
-4.836916923522949e-05
-4.941225051879883e-05
-5.131959915161133e-05
-5.377829074859619e-05
-5.6609511375427246e-05
-5.942583084106445e-05
-6.195902824401855e-05
-6.408989429473877e-05
-6.569921970367432e-05
-6.680190563201904e-05
-6.733834743499756e-05
-6.745755672454834e-05
-6.724894046783447e-05
-6.683170795440674e-05
-6.631016731262207e-05
-6.580352783203125e-05
-6.532669067382812e-05
-6.4849853515625e-05
-6.447732448577881e-05
-6.411969661712646e-05
-6.380677223205566e-05
-6.334483623504639e-05
-6.279349327087402e-05
-6.209313869476318e-05
-6.121397018432617e-05
-6.014108657836914e-05
-5.875527858734131e-05
-5.720555782318115e-05
-5.5462121963500977e-05
-5.358457565307617e-05
-5.157291889190674e-05
-4.9620866775512695e-05
-4.774332046508789e-05
-4.604458808898926e-05
-4.4673681259155273e-05
-4.3705105781555176e-05
-4.336237907409668e-05
-4.3764710426330566e-05
-4.495680332183838e-05
-4.7072768211364746e-05
-0.00017236173152923584
-0.00018195807933807373
-0.00018987059593200684
-0.00019630789756774902
-0.00020144879817962646
-0.00020550191402435303
-0.0002087801694869995
-0.00021152198314666748
-0.00021401047706604004
-0.00021651387214660645
-0.00021924078464508057
-0.00022226572036743164
-0.0002257227897644043
-0.00022962689399719238
-0.0002339184284210205
-0.0002384781837463379
-0.0002431720495223999
-0.0002480447292327881
-0.0002528876066207886
-0.0002576112747192383
-0.00026206672191619873
-0.000266149640083313
-0.00026963651180267334
-0.0002724379301071167
-0.0002744346857070923
-0.00027535855770111084
-0.0002751201391220093
-0.00027370452880859375
-0.00027102231979370117
-0.00026713311672210693
-0.0002620965242385864
-0.0002560466527938843
-0.0002490878105163574
-0.00024150311946868896
-0.00023353099822998047
-0.0002253204584121704
-0.00021699070930480957
-0.00020876526832580566
-0.0002006739377975464
-0.00019279122352600098
-0.0001850724220275879
-0.00017748773097991943
-0.00016988813877105713
-0.00016225874423980713
-0.00015453994274139404
-0.0001465529203414917
-0.00013825297355651855
-0.00012952089309692383
-0.00012049078941345215
-0.0001112222671508789
-0.00010170042514801025
-9.21487808227539e-05
-8.279085159301758e-05
-7.377564907073975e-05
-6.555020809173584e-05
-5.829334259033203e-05
-5.218386650085449e-05
-4.7579407691955566e-05
-4.45246696472168e-05
-4.298985004425049e-05
-4.29302453994751e-05
-4.41819429397583e-05
-4.6387314796447754e-05
-4.935264587402344e-05
-5.258619785308838e-05
-5.580484867095947e-05
-5.88148832321167e-05
-6.121397018432617e-05
-6.309151649475098e-05
-6.42240047454834e-05
-6.477534770965576e-05
-6.486475467681885e-05
-6.45369291305542e-05
-6.389617919921875e-05
-6.315112113952637e-05
-6.240606307983398e-05
-6.16908073425293e-05
-6.103515625e-05
-6.0439109802246094e-05
-5.996227264404297e-05
-5.951523780822754e-05
-5.9038400650024414e-05
-5.844235420227051e-05
-5.771219730377197e-05
-5.6743621826171875e-05
-5.5655837059020996e-05
-5.4270029067993164e-05
-5.270540714263916e-05
-5.0902366638183594e-05
-4.8980116844177246e-05
-4.6879053115844727e-05
-4.476308822631836e-05
-4.266202449798584e-05
-4.0665268898010254e-05
-3.898143768310547e-05
-3.762543201446533e-05
-3.679096698760986e-05
-3.6597251892089844e-05
-3.7163496017456055e-05
-3.853440284729004e-05
-0.0001787245273590088
-0.00018772482872009277
-0.00019505620002746582
-0.0002009272575378418
-0.00020548701286315918
-0.00020895898342132568
-0.00021162629127502441
-0.00021369755268096924
-0.00021544098854064941
-0.00021710991859436035
-0.00021898746490478516
-0.00022111833095550537
-0.0002237260341644287
-0.00022681057453155518
-0.00023037195205688477
-0.00023436546325683594
-0.0002386718988418579
-0.00024324655532836914
-0.0002479851245880127
-0.0002527683973312378
-0.0002573728561401367
-0.00026172399520874023
-0.0002656877040863037
-0.00026889145374298096
-0.00027136504650115967
-0.0002728402614593506
-0.000273093581199646
-0.0002721250057220459
-0.00026988983154296875
-0.0002663135528564453
-0.0002615600824356079
-0.00025562942028045654
-0.0002488046884536743
-0.00024124979972839355
-0.00023315846920013428
-0.00022487342357635498
-0.00021634995937347412
-0.00020791590213775635
-0.0001996457576751709
-0.00019152462482452393
-0.00018364191055297852
-0.00017583370208740234
-0.0001681298017501831
-0.00016041100025177002
-0.0001525282859802246
-0.00014446675777435303
-0.0001360476016998291
-0.00012734532356262207
-0.00011818110942840576
-0.0001087188720703125
-9.904801845550537e-05
-8.925795555114746e-05
-7.960200309753418e-05
-7.031857967376709e-05