# vtk DataFile Version 3.0
2D PINN Solution
ASCII
DATASET STRUCTURED_GRID
DIMENSIONS 100 100 1
POINTS 10000 float
-1.0 -1.0 0.0
-0.9797979797979798 -1.0 0.0
-0.9595959595959596 -1.0 0.0
-0.9393939393939394 -1.0 0.0
-0.9191919191919192 -1.0 0.0
-0.898989898989899 -1.0 0.0
-0.8787878787878788 -1.0 0.0
-0.8585858585858586 -1.0 0.0
-0.8383838383838383 -1.0 0.0
-0.8181818181818181 -1.0 0.0
-0.797979797979798 -1.0 0.0
-0.7777777777777778 -1.0 0.0
-0.7575757575757576 -1.0 0.0
-0.7373737373737373 -1.0 0.0
-0.7171717171717171 -1.0 0.0
-0.696969696969697 -1.0 0.0
-0.6767676767676767 -1.0 0.0
-0.6565656565656566 -1.0 0.0
-0.6363636363636364 -1.0 0.0
-0.6161616161616161 -1.0 0.0
-0.5959595959595959 -1.0 0.0
-0.5757575757575757 -1.0 0.0
-0.5555555555555556 -1.0 0.0
-0.5353535353535352 -1.0 0.0
-0.5151515151515151 -1.0 0.0
-0.4949494949494949 -1.0 0.0
-0.4747474747474747 -1.0 0.0
-0.4545454545454545 -1.0 0.0
-0.43434343434343425 -1.0 0.0
-0.41414141414141414 -1.0 0.0
-0.3939393939393939 -1.0 0.0
-0.3737373737373737 -1.0 0.0
-0.3535353535353535 -1.0 0.0
-0.33333333333333326 -1.0 0.0
-0.31313131313131304 -1.0 0.0
-0.2929292929292928 -1.0 0.0
-0.2727272727272727 -1.0 0.0
-0.2525252525252525 -1.0 0.0
-0.23232323232323226 -1.0 0.0
-0.21212121212121204 -1.0 0.0
-0.19191919191919182 -1.0 0.0
-0.1717171717171716 -1.0 0.0
-0.1515151515151515 -1.0 0.0
-0.13131313131313127 -1.0 0.0
-0.11111111111111105 -1.0 0.0
-0.09090909090909083 -1.0 0.0
-0.07070707070707061 -1.0 0.0
-0.050505050505050386 -1.0 0.0
-0.030303030303030276 -1.0 0.0
-0.010101010101010055 -1.0 0.0
0.010101010101010166 -1.0 0.0
0.030303030303030498 -1.0 0.0
0.05050505050505061 -1.0 0.0
0.07070707070707072 -1.0 0.0
0.09090909090909105 -1.0 0.0
0.11111111111111116 -1.0 0.0
0.1313131313131315 -1.0 0.0
0.1515151515151516 -1.0 0.0
0.1717171717171717 -1.0 0.0
0.19191919191919204 -1.0 0.0
0.21212121212121215 -1.0 0.0
0.2323232323232325 -1.0 0.0
0.2525252525252526 -1.0 0.0
0.27272727272727293 -1.0 0.0
0.29292929292929304 -1.0 0.0
0.31313131313131315 -1.0 0.0
0.3333333333333335 -1.0 0.0
0.3535353535353536 -1.0 0.0
0.3737373737373739 -1.0 0.0
0.39393939393939403 -1.0 0.0
0.41414141414141437 -1.0 0.0
0.4343434343434345 -1.0 0.0
0.4545454545454546 -1.0 0.0
0.4747474747474749 -1.0 0.0
0.49494949494949503 -1.0 0.0
0.5151515151515154 -1.0 0.0
0.5353535353535355 -1.0 0.0
0.5555555555555556 -1.0 0.0
0.5757575757575759 -1.0 0.0
0.595959595959596 -1.0 0.0
0.6161616161616164 -1.0 0.0
0.6363636363636365 -1.0 0.0
0.6565656565656568 -1.0 0.0
0.6767676767676769 -1.0 0.0
0.696969696969697 -1.0 0.0
0.7171717171717173 -1.0 0.0
0.7373737373737375 -1.0 0.0
0.7575757575757578 -1.0 0.0
0.7777777777777779 -1.0 0.0
0.7979797979797982 -1.0 0.0
0.8181818181818183 -1.0 0.0
0.8383838383838385 -1.0 0.0
0.8585858585858588 -1.0 0.0
0.8787878787878789 -1.0 0.0
0.8989898989898992 -1.0 0.0
0.9191919191919193 -1.0 0.0
0.9393939393939394 -1.0 0.0
0.9595959595959598 -1.0 0.0
0.9797979797979799 -1.0 0.0
1.0 -1.0 0.0
-1.0 -0.9797979797979798 0.0
-0.9797979797979798 -0.9797979797979798 0.0
-0.9595959595959596 -0.9797979797979798 0.0
-0.9393939393939394 -0.9797979797979798 0.0
-0.9191919191919192 -0.9797979797979798 0.0
-0.898989898989899 -0.9797979797979798 0.0
-0.8787878787878788 -0.9797979797979798 0.0
-0.8585858585858586 -0.9797979797979798 0.0
-0.8383838383838383 -0.9797979797979798 0.0
-0.8181818181818181 -0.9797979797979798 0.0
-0.797979797979798 -0.9797979797979798 0.0
-0.7777777777777778 -0.9797979797979798 0.0
-0.7575757575757576 -0.9797979797979798 0.0
-0.7373737373737373 -0.9797979797979798 0.0
-0.7171717171717171 -0.9797979797979798 0.0
-0.696969696969697 -0.9797979797979798 0.0
-0.6767676767676767 -0.9797979797979798 0.0
-0.6565656565656566 -0.9797979797979798 0.0
-0.6363636363636364 -0.9797979797979798 0.0
-0.6161616161616161 -0.9797979797979798 0.0
-0.5959595959595959 -0.9797979797979798 0.0
-0.5757575757575757 -0.9797979797979798 0.0
-0.5555555555555556 -0.9797979797979798 0.0
-0.5353535353535352 -0.9797979797979798 0.0
-0.5151515151515151 -0.9797979797979798 0.0
-0.4949494949494949 -0.9797979797979798 0.0
-0.4747474747474747 -0.9797979797979798 0.0
-0.4545454545454545 -0.9797979797979798 0.0
-0.43434343434343425 -0.9797979797979798 0.0
-0.41414141414141414 -0.9797979797979798 0.0
-0.3939393939393939 -0.9797979797979798 0.0
-0.3737373737373737 -0.9797979797979798 0.0
-0.3535353535353535 -0.9797979797979798 0.0
-0.33333333333333326 -0.9797979797979798 0.0
-0.31313131313131304 -0.9797979797979798 0.0
-0.2929292929292928 -0.9797979797979798 0.0
-0.2727272727272727 -0.9797979797979798 0.0
-0.2525252525252525 -0.9797979797979798 0.0
-0.23232323232323226 -0.9797979797979798 0.0
-0.21212121212121204 -0.9797979797979798 0.0
-0.19191919191919182 -0.9797979797979798 0.0
-0.1717171717171716 -0.9797979797979798 0.0
-0.1515151515151515 -0.9797979797979798 0.0
-0.13131313131313127 -0.9797979797979798 0.0
-0.11111111111111105 -0.9797979797979798 0.0
-0.09090909090909083 -0.9797979797979798 0.0
-0.07070707070707061 -0.9797979797979798 0.0
-0.050505050505050386 -0.9797979797979798 0.0
-0.030303030303030276 -0.9797979797979798 0.0
-0.010101010101010055 -0.9797979797979798 0.0
0.010101010101010166 -0.9797979797979798 0.0
0.030303030303030498 -0.9797979797979798 0.0
0.05050505050505061 -0.9797979797979798 0.0
0.07070707070707072 -0.9797979797979798 0.0
0.09090909090909105 -0.9797979797979798 0.0
0.11111111111111116 -0.9797979797979798 0.0
0.1313131313131315 -0.9797979797979798 0.0
0.1515151515151516 -0.9797979797979798 0.0
0.1717171717171717 -0.9797979797979798 0.0
0.19191919191919204 -0.9797979797979798 0.0
0.21212121212121215 -0.9797979797979798 0.0
0.2323232323232325 -0.9797979797979798 0.0
0.2525252525252526 -0.9797979797979798 0.0
0.27272727272727293 -0.9797979797979798 0.0
0.29292929292929304 -0.9797979797979798 0.0
0.31313131313131315 -0.9797979797979798 0.0
0.3333333333333335 -0.9797979797979798 0.0
0.3535353535353536 -0.9797979797979798 0.0
0.3737373737373739 -0.9797979797979798 0.0
0.39393939393939403 -0.9797979797979798 0.0
0.41414141414141437 -0.9797979797979798 0.0
0.4343434343434345 -0.9797979797979798 0.0
0.4545454545454546 -0.9797979797979798 0.0
0.4747474747474749 -0.9797979797979798 0.0
0.49494949494949503 -0.9797979797979798 0.0
0.5151515151515154 -0.9797979797979798 0.0
0.5353535353535355 -0.9797979797979798 0.0
0.5555555555555556 -0.9797979797979798 0.0
0.5757575757575759 -0.9797979797979798 0.0
0.595959595959596 -0.9797979797979798 0.0
0.6161616161616164 -0.9797979797979798 0.0
0.6363636363636365 -0.9797979797979798 0.0
0.6565656565656568 -0.9797979797979798 0.0
0.6767676767676769 -0.9797979797979798 0.0
0.696969696969697 -0.9797979797979798 0.0
0.7171717171717173 -0.9797979797979798 0.0
0.7373737373737375 -0.9797979797979798 0.0
0.7575757575757578 -0.9797979797979798 0.0
0.7777777777777779 -0.9797979797979798 0.0
0.7979797979797982 -0.9797979797979798 0.0
0.8181818181818183 -0.9797979797979798 0.0
0.8383838383838385 -0.9797979797979798 0.0
0.8585858585858588 -0.9797979797979798 0.0
0.8787878787878789 -0.9797979797979798 0.0
0.8989898989898992 -0.9797979797979798 0.0
0.9191919191919193 -0.9797979797979798 0.0
0.9393939393939394 -0.9797979797979798 0.0
0.9595959595959598 -0.9797979797979798 0.0
0.9797979797979799 -0.9797979797979798 0.0
1.0 -0.9797979797979798 0.0
-1.0 -0.9595959595959596 0.0
-0.9797979797979798 -0.9595959595959596 0.0
-0.9595959595959596 -0.9595959595959596 0.0
-0.9393939393939394 -0.9595959595959596 0.0
-0.9191919191919192 -0.9595959595959596 0.0
-0.898989898989899 -0.9595959595959596 0.0
-0.8787878787878788 -0.9595959595959596 0.0
-0.8585858585858586 -0.9595959595959596 0.0
-0.8383838383838383 -0.9595959595959596 0.0
-0.8181818181818181 -0.9595959595959596 0.0
-0.797979797979798 -0.9595959595959596 0.0
-0.7777777777777778 -0.9595959595959596 0.0
-0.7575757575757576 -0.9595959595959596 0.0
-0.7373737373737373 -0.9595959595959596 0.0
-0.7171717171717171 -0.9595959595959596 0.0
-0.696969696969697 -0.9595959595959596 0.0
-0.6767676767676767 -0.9595959595959596 0.0
-0.6565656565656566 -0.9595959595959596 0.0
-0.6363636363636364 -0.9595959595959596 0.0
-0.6161616161616161 -0.9595959595959596 0.0
-0.5959595959595959 -0.9595959595959596 0.0
-0.5757575757575757 -0.9595959595959596 0.0
-0.5555555555555556 -0.9595959595959596 0.0
-0.5353535353535352 -0.9595959595959596 0.0
-0.5151515151515151 -0.9595959595959596 0.0
-0.4949494949494949 -0.9595959595959596 0.0
-0.4747474747474747 -0.9595959595959596 0.0
-0.4545454545454545 -0.9595959595959596 0.0
-0.43434343434343425 -0.9595959595959596 0.0
-0.41414141414141414 -0.9595959595959596 0.0
-0.3939393939393939 -0.9595959595959596 0.0
-0.3737373737373737 -0.9595959595959596 0.0
-0.3535353535353535 -0.9595959595959596 0.0
-0.33333333333333326 -0.9595959595959596 0.0
-0.31313131313131304 -0.9595959595959596 0.0
-0.2929292929292928 -0.9595959595959596 0.0
-0.2727272727272727 -0.9595959595959596 0.0
-0.2525252525252525 -0.9595959595959596 0.0
-0.23232323232323226 -0.9595959595959596 0.0
-0.21212121212121204 -0.9595959595959596 0.0
-0.19191919191919182 -0.9595959595959596 0.0
-0.1717171717171716 -0.9595959595959596 0.0
-0.1515151515151515 -0.9595959595959596 0.0
-0.13131313131313127 -0.9595959595959596 0.0
-0.11111111111111105 -0.9595959595959596 0.0
-0.09090909090909083 -0.9595959595959596 0.0
-0.07070707070707061 -0.9595959595959596 0.0
-0.050505050505050386 -0.9595959595959596 0.0
-0.030303030303030276 -0.9595959595959596 0.0
-0.010101010101010055 -0.9595959595959596 0.0
0.010101010101010166 -0.9595959595959596 0.0
0.030303030303030498 -0.9595959595959596 0.0
0.05050505050505061 -0.9595959595959596 0.0
0.07070707070707072 -0.9595959595959596 0.0
0.09090909090909105 -0.9595959595959596 0.0
0.11111111111111116 -0.9595959595959596 0.0
0.1313131313131315 -0.9595959595959596 0.0
0.1515151515151516 -0.9595959595959596 0.0
0.1717171717171717 -0.9595959595959596 0.0
0.19191919191919204 -0.9595959595959596 0.0
0.21212121212121215 -0.9595959595959596 0.0
[...]
POINT_DATA 10000
SCALARS u float 1
LOOKUP_TABLE default
3.857910633087158e-05
3.5181641578674316e-05
3.235042095184326e-05
3.026425838470459e-05
2.8714537620544434e-05
2.7731060981750488e-05
2.7194619178771973e-05
2.7164816856384277e-05
2.753734588623047e-05
2.8267502784729004e-05
2.942979335784912e-05
3.072619438171387e-05
3.2335519790649414e-05
3.409385681152344e-05
3.606081008911133e-05
3.8117170333862305e-05
4.0337443351745605e-05
4.26173210144043e-05
4.488229751586914e-05
4.717707633972168e-05
4.939734935760498e-05
5.1647424697875977e-05
5.373358726501465e-05
5.5670738220214844e-05
5.751848220825195e-05
5.914270877838135e-05
6.064772605895996e-05
6.192922592163086e-05
6.300210952758789e-05
6.38812780380249e-05
6.458163261413574e-05
6.507337093353271e-05
6.541609764099121e-05
6.565451622009277e-05
6.569921970367432e-05
6.563961505889893e-05
6.549060344696045e-05
6.520748138427734e-05
6.480515003204346e-05
6.429851055145264e-05
6.368756294250488e-05
6.282329559326172e-05
6.172060966491699e-05
6.033480167388916e-05
5.8591365814208984e-05
5.6356191635131836e-05
5.37186861038208e-05
5.0380825996398926e-05
4.6446919441223145e-05
4.178285598754883e-05
3.641843795776367e-05
3.0234456062316895e-05
2.3290514945983887e-05
1.5601515769958496e-05
7.137656211853027e-06
-1.9669532775878906e-06
-1.1429190635681152e-05
-2.1383166313171387e-05
-3.147125244140625e-05
-4.157423973083496e-05
-5.148351192474365e-05
-6.10649585723877e-05
-7.015466690063477e-05
-7.858872413635254e-05
-8.632242679595947e-05
-9.326636791229248e-05
-9.95248556137085e-05
-0.00010499358177185059
-0.00010976195335388184
-0.00011393427848815918
-0.00011754035949707031
-0.00012071430683135986
-0.00012350082397460938
-0.00012592971324920654
-0.00012803077697753906
-0.00012984871864318848
-0.00013138353824615479
-0.00013269484043121338
-0.00013364851474761963
-0.00013446807861328125
-0.00013512372970581055
-0.0001357048749923706
-0.00013627111911773682
-0.0001369267702102661
-0.00013780593872070312
-0.0001389533281326294
-0.0001405477523803711
-0.00014263391494750977
-0.00014519691467285156
-0.0001484006643295288
-0.00015205144882202148
-0.00015622377395629883
-0.00016079843044281006
-0.00016571581363677979
-0.00017090141773223877
-0.00017617642879486084
-0.0001814812421798706
-0.00018671154975891113
-0.0001917332410812378
-0.00019644200801849365
4.141032695770264e-05
3.844499588012695e-05
3.6135315895080566e-05
3.4436583518981934e-05
3.3348798751831055e-05
3.2782554626464844e-05
3.269314765930176e-05
3.3035874366760254e-05
3.3721327781677246e-05
3.482401371002197e-05
3.6209821701049805e-05
3.777444362640381e-05
3.962218761444092e-05
4.1604042053222656e-05
4.3764710426330566e-05
4.5999884605407715e-05
4.83095645904541e-05
5.060434341430664e-05
5.2988529205322266e-05
5.5223703384399414e-05
5.742907524108887e-05
5.955994129180908e-05
6.154179573059082e-05
6.324052810668945e-05
6.479024887084961e-05
6.608664989471436e-05
6.720423698425293e-05
6.811320781707764e-05
6.867945194244385e-05
6.908178329467773e-05
6.93202018737793e-05
6.930530071258545e-05
6.914138793945312e-05
6.887316703796387e-05
6.851553916931152e-05
6.802380084991455e-05
6.759166717529297e-05
6.696581840515137e-05
6.645917892456055e-05
6.575882434844971e-05
6.505846977233887e-05
6.42240047454834e-05
6.330013275146484e-05
6.212294101715088e-05
6.07222318649292e-05
5.894899368286133e-05
5.6684017181396484e-05
5.395710468292236e-05
5.0693750381469727e-05
4.673004150390625e-05
4.2125582695007324e-05
3.676116466522217e-05
3.056228160858154e-05
2.358853816986084e-05
1.589953899383545e-05
7.420778274536133e-06
-1.6242265701293945e-06
-1.1160969734191895e-05
-2.1010637283325195e-05
-3.1054019927978516e-05
-4.094839096069336e-05
-5.05596399307251e-05
-5.969405174255371e-05
-6.818771362304688e-05
-7.592141628265381e-05
-8.285045623779297e-05
-8.891522884368896e-05
-9.420514106750488e-05
-9.880959987640381e-05
-0.00010281801223754883
-0.00010627508163452148
-0.00010946393013000488
-0.00011231005191802979
-0.00011499226093292236
-0.00011754035949707031
-0.00011992454528808594
-0.00012223422527313232
-0.00012433528900146484
-0.0001262873411178589
-0.00012806057929992676
-0.00012955069541931152
-0.00013093650341033936
-0.0001322031021118164
-0.0001334846019744873
-0.0001348257064819336
-0.0001363605260848999
-0.00013822317123413086
-0.00014038383960723877
-0.00014297664165496826
-0.00014612078666687012
-0.0001496821641921997
-0.00015372037887573242
-0.00015820562839508057
-0.00016295909881591797
-0.00016799569129943848
-0.00017318129539489746
-0.000178411602973938
-0.00018355250358581543
-0.0001885443925857544
-0.00019319355487823486
4.407763481140137e-05
4.152953624725342e-05
3.959238529205322e-05
3.8310885429382324e-05
3.75211238861084e-05
3.7282705307006836e-05
3.7476420402526855e-05
3.8057565689086914e-05
3.898143768310547e-05
4.0277838706970215e-05
4.1797757148742676e-05
4.354119300842285e-05
4.547834396362305e-05
4.7534704208374023e-05
4.9740076065063477e-05
5.201995372772217e-05
5.429983139038086e-05
5.657970905303955e-05
5.8844685554504395e-05
6.102025508880615e-05
6.313621997833252e-05
6.501376628875732e-05
6.67572021484375e-05
6.824731826782227e-05
6.946921348571777e-05
7.049739360809326e-05
7.113814353942871e-05
7.155537605285645e-05
7.176399230957031e-05
7.164478302001953e-05
7.133185863494873e-05
7.08848237991333e-05
7.02589750289917e-05
6.958842277526855e-05
6.878376007080078e-05
6.796419620513916e-05
6.723403930664062e-05
6.64740800857544e-05
6.580352783203125e-05
6.51627779006958e-05
6.45369291305542e-05
6.385147571563721e-05
6.312131881713867e-05
6.219744682312012e-05
6.113946437835693e-05
5.97834587097168e-05
5.805492401123047e-05
5.5909156799316406e-05
5.3301453590393066e-05
5.005300045013428e-05
4.623830318450928e-05
4.169344902038574e-05
3.643333911895752e-05
3.038346767425537e-05
2.3558735847473145e-05
1.5914440155029297e-05
7.510185241699219e-06
-1.4007091522216797e-06
-1.080334186553955e-05
-2.0489096641540527e-05
-3.013014793395996e-05
-3.9577484130859375e-05
-4.8533082008361816e-05
-5.6877732276916504e-05
-6.437301635742188e-05
-7.103383541107178e-05
-7.669627666473389e-05
-8.1673264503479e-05
-8.575618267059326e-05
-8.939206600189209e-05
-9.258091449737549e-05
-9.557604789733887e-05
-9.840726852416992e-05
-0.00010125339031219482
-0.00010421872138977051
-0.00010731816291809082
-0.00011037290096282959
-0.00011348724365234375
-0.00011645257472991943
-0.00011929869651794434
-0.00012196600437164307
-0.00012442469596862793
-0.00012665987014770508
-0.0001287609338760376
-0.00013080239295959473
-0.0001328587532043457
-0.00013503432273864746
-0.00013750791549682617
-0.00014032423496246338
-0.0001434534788131714
-0.00014708936214447021
-0.00015106797218322754
-0.0001553744077682495
-0.00016011297702789307
-0.00016501545906066895
-0.00017018616199493408
-0.00017532706260681152
-0.00018040835857391357
-0.000185355544090271
-0.000190049409866333
4.649162292480469e-05
4.4286251068115234e-05
4.270672798156738e-05
4.166364669799805e-05
4.1097402572631836e-05
4.09930944442749e-05
4.139542579650879e-05
4.2125582695007324e-05
4.316866397857666e-05
4.4479966163635254e-05
4.60892915725708e-05
4.7788023948669434e-05
4.966557025909424e-05
5.167722702026367e-05
5.379319190979004e-05
5.59389591217041e-05
5.811452865600586e-05
6.021559238433838e-05
6.237626075744629e-05
6.429851055145264e-05
6.61611557006836e-05
6.778538227081299e-05
6.923079490661621e-05
7.037818431854248e-05
7.136166095733643e-05
7.191300392150879e-05
7.221102714538574e-05
7.221102714538574e-05
7.18533992767334e-05
7.136166095733643e-05
7.05718994140625e-05
6.969273090362549e-05
6.866455078125e-05
6.759166717529297e-05
6.656348705291748e-05
6.560981273651123e-05
6.468594074249268e-05
6.394088268280029e-05
6.32554292678833e-05
6.277859210968018e-05
6.237626075744629e-05
6.194412708282471e-05
6.158649921417236e-05
6.113946437835693e-05
6.057322025299072e-05
5.969405174255371e-05
5.863606929779053e-05
5.716085433959961e-05
5.519390106201172e-05
5.2809715270996094e-05
4.978477954864502e-05
4.620850086212158e-05
4.1812658309936523e-05
3.676116466522217e-05
3.081560134887695e-05
2.4020671844482422e-05
1.646578311920166e-05
8.210539817810059e-06
-6.556510925292969e-07
-9.879469871520996e-06
-1.9222497940063477e-05
-2.847611904144287e-05
-3.7088990211486816e-05
-4.51505184173584e-05
-5.2303075790405273e-05
-5.8516860008239746e-05
-6.371736526489258e-05
-6.808340549468994e-05
-7.165968418121338e-05
-7.465481758117676e-05
-7.727742195129395e-05
-7.988512516021729e-05
-8.258223533630371e-05
-8.553266525268555e-05
-8.86768102645874e-05
-9.232759475708008e-05
-9.620189666748047e-05
-0.00010029971599578857
-0.00010450184345245361
-0.00010858476161956787
-0.00011251866817474365
-0.00011613965034484863
-0.00011959671974182129
-0.00012274086475372314
-0.00012561678886413574
-0.00012837350368499756
-0.0001312047243118286
-0.00013405084609985352
-0.00013710558414459229
-0.000140458345413208
-0.00014409422874450684
-0.00014813244342803955
-0.00015249848365783691
-0.00015713274478912354
-0.00016203522682189941
-0.00016708672046661377
-0.0001722276210784912
-0.00017727911472320557
-0.00018228590488433838
-0.0001869797706604004
4.857778549194336e-05
4.661083221435547e-05
4.521012306213379e-05
4.437565803527832e-05
4.398822784423828e-05
4.404783248901367e-05
4.445016384124756e-05
4.522502422332764e-05
4.6253204345703125e-05
4.747509956359863e-05
4.89652156829834e-05
5.05298376083374e-05
5.219876766204834e-05
5.404651165008545e-05
5.583465099334717e-05
5.777180194854736e-05
5.964934825897217e-05
6.154179573059082e-05
6.335973739624023e-05
6.505846977233887e-05
6.651878356933594e-05
6.787478923797607e-05
6.89476728439331e-05
6.976723670959473e-05
7.030367851257324e-05
7.048249244689941e-05
7.033348083496094e-05
6.993114948272705e-05
6.917119026184082e-05
6.820261478424072e-05
6.7099928855896e-05
6.58184289932251e-05
6.45369291305542e-05
6.3285231590271e-05
6.210803985595703e-05
6.107985973358154e-05
6.0230493545532227e-05
5.9664249420166016e-05
5.924701690673828e-05
5.908310413360596e-05
5.91278076171875e-05
5.936622619628906e-05
5.957484245300293e-05
5.988776683807373e-05
6.0051679611206055e-05
6.0051679611206055e-05
5.97834587097168e-05
5.926191806793213e-05
5.8278441429138184e-05
5.683302879333496e-05
5.488097667694092e-05
5.2288174629211426e-05
4.890561103820801e-05
4.482269287109375e-05
3.9771199226379395e-05
3.381073474884033e-05
2.695620059967041e-05
1.9177794456481934e-05
1.0699033737182617e-05
1.6838312149047852e-06
-7.510185241699219e-06
-1.6614794731140137e-05
-2.5257468223571777e-05
-3.3214688301086426e-05
-4.0143728256225586e-05
-4.6059489250183105e-05
-5.081295967102051e-05
-5.453824996948242e-05
-5.739927291870117e-05
-5.9723854064941406e-05
-6.170570850372314e-05
-6.373226642608643e-05
-6.589293479919434e-05
-6.866455078125e-05
-7.200241088867188e-05
-7.596611976623535e-05
-8.055567741394043e-05
-8.55177640914917e-05
-9.086728096008301e-05
-9.620189666748047e-05
-0.00010147690773010254
-0.00010655820369720459
-0.00011116266250610352
-0.00011548399925231934
-0.00011941790580749512
-0.00012308359146118164
-0.00012655556201934814
-0.00012996792793273926
-0.00013341009616851807
-0.0001370161771774292
-0.00014087557792663574
-0.00014500319957733154
-0.0001493394374847412
-0.00015403330326080322
-0.00015892088413238525
-0.00016394257545471191
-0.00016908347606658936
-0.0001741945743560791
-0.00017917156219482422
-0.00018393993377685547
5.035102367401123e-05
4.851818084716797e-05
4.729628562927246e-05
4.652142524719238e-05
4.622340202331543e-05
4.6253204345703125e-05
4.667043685913086e-05
4.7326087951660156e-05
4.817545413970947e-05
4.920363426208496e-05
5.041062831878662e-05
5.167722702026367e-05
5.30928373336792e-05
5.4523348808288574e-05
5.6043267250061035e-05
5.7578086853027344e-05
5.906820297241211e-05
6.048381328582764e-05
6.191432476043701e-05
6.321072578430176e-05
6.431341171264648e-05
6.522238254547119e-05
6.590783596038818e-05
6.631016731262207e-05
6.636977195739746e-05
6.61611557006836e-05
6.559491157531738e-05
6.486475467681885e-05
6.370246410369873e-05
6.239116191864014e-05
6.099045276641846e-05
5.957484245300293e-05
5.81890344619751e-05
5.6803226470947266e-05
5.576014518737793e-05
5.491077899932861e-05
5.440413951873779e-05
5.422532558441162e-05
5.4389238357543945e-05
5.4970383644104004e-05
5.577504634857178e-05
5.695223808288574e-05
5.821883678436279e-05
5.964934825897217e-05
6.10649585723877e-05
6.245076656341553e-05
6.373226642608643e-05
6.465613842010498e-05
6.520748138427734e-05
6.531178951263428e-05
6.486475467681885e-05
6.362795829772949e-05
6.164610385894775e-05
5.866587162017822e-05
5.453824996948242e-05
4.926323890686035e-05
4.273653030395508e-05
3.509223461151123e-05
2.6494264602661133e-05
1.7061829566955566e-05
7.256865501403809e-06
-2.562999725341797e-06
-1.1861324310302734e-05
-2.0384788513183594e-05
-2.7686357498168945e-05
-3.376603126525879e-05
-3.840029239654541e-05
-4.182755947113037e-05
-4.412233829498291e-05
-4.573166370391846e-05
-4.6953558921813965e-05
-4.819035530090332e-05
-4.985928535461426e-05
-5.218386650085449e-05
-5.538761615753174e-05
-5.942583084106445e-05
-6.440281867980957e-05
-7.012486457824707e-05
-7.644295692443848e-05
-8.291006088256836e-05
-8.945167064666748e-05
-9.576976299285889e-05
-0.00010178983211517334
-0.00010734796524047852
-0.00011244416236877441
-0.00011704862117767334
-0.00012132525444030762
-0.00012536346912384033
-0.0001293271780014038
-0.00013324618339538574
-0.0001372992992401123
-0.00014159083366394043
-0.00014609098434448242
-0.0001507401466369629
-0.0001556873321533203
-0.00016076862812042236
-0.00016595423221588135
-0.0001710951328277588
-0.000176161527633667
-0.00018095970153808594
5.173683166503906e-05
5.008280277252197e-05
4.889070987701416e-05
4.8220157623291016e-05
4.780292510986328e-05
4.7847628593444824e-05
4.8041343688964844e-05
4.850327968597412e-05
4.914402961730957e-05
4.985928535461426e-05
5.067884922027588e-05
5.1602721214294434e-05
5.251169204711914e-05
5.352497100830078e-05
5.455315113067627e-05
5.552172660827637e-05
5.647540092468262e-05
5.745887756347656e-05
5.835294723510742e-05
5.911290645599365e-05
5.97536563873291e-05
6.0170888900756836e-05
6.03795051574707e-05
6.0304999351501465e-05
5.9977173805236816e-05
5.933642387390137e-05
5.8397650718688965e-05
5.7190656661987305e-05
5.581974983215332e-05
5.43743371963501e-05
5.283951759338379e-05
5.136430263519287e-05
5.003809928894043e-05
4.89652156829834e-05
4.824995994567871e-05
4.792213439941406e-05
4.805624485015869e-05
4.8667192459106445e-05
4.978477954864502e-05
5.142390727996826e-05
5.3569674491882324e-05
5.6117773056030273e-05
5.9023499488830566e-05
6.230175495147705e-05
6.584823131561279e-05
6.945431232452393e-05
7.311999797821045e-05
7.671117782592773e-05
7.994472980499268e-05
8.273124694824219e-05
8.48919153213501e-05
8.606910705566406e-05
8.61436128616333e-05
8.484721183776855e-05
8.20457935333252e-05
7.744133472442627e-05
7.092952728271484e-05
6.271898746490479e-05
5.27799129486084e-05
4.170835018157959e-05
2.987682819366455e-05
1.7836689949035645e-05
6.332993507385254e-06
-4.217028617858887e-06
-1.3366341590881348e-05
-2.0697712898254395e-05
-2.6300549507141113e-05
-3.0159950256347656e-05
-3.254413604736328e-05
-3.375113010406494e-05
-3.445148468017578e-05
-3.504753112792969e-05
-3.5956501960754395e-05
-3.756582736968994e-05
-4.026293754577637e-05
-4.412233829498291e-05
-4.915893077850342e-05
-5.5223703384399414e-05
-6.212294101715088e-05
-6.954371929168701e-05
-7.717311382293701e-05
-8.474290370941162e-05
-9.192526340484619e-05
-9.869039058685303e-05
-0.00010482966899871826
-0.00011046230792999268
-0.00011561810970306396
-0.00012032687664031982
-0.00012476742267608643
-0.00012916326522827148
-0.0001335442066192627
-0.00013799965381622314
-0.00014263391494750977
-0.0001474618911743164
-0.00015242397785186768
-0.00015754997730255127
-0.0001627206802368164
-0.00016799569129943848
-0.00017312169075012207
-0.00017805397510528564
5.289912223815918e-05
5.128979682922363e-05
5.0127506256103516e-05
4.935264587402344e-05
4.89354133605957e-05
4.8801302909851074e-05
4.881620407104492e-05
4.8995018005371094e-05
4.9248337745666504e-05
4.957616329193115e-05
4.9948692321777344e-05
5.033612251281738e-05
5.078315734863281e-05
5.1155686378479004e-05
5.155801773071289e-05
5.194544792175293e-05
5.231797695159912e-05
5.266070365905762e-05
5.2928924560546875e-05
5.30928373336792e-05
5.322694778442383e-05
5.3063035011291504e-05
5.27799129486084e-05
5.221366882324219e-05
5.145370960235596e-05
5.0455331802368164e-05
4.926323890686035e-05
4.780292510986328e-05
4.6312808990478516e-05
4.4792890548706055e-05
4.334747791290283e-05
4.209578037261963e-05
4.1157007217407227e-05
4.060566425323486e-05
4.063546657562256e-05
4.108250141143799e-05
4.2304396629333496e-05
4.413723945617676e-05
4.6700239181518555e-05
4.99039888381958e-05
5.3882598876953125e-05
5.8516860008239746e-05
6.389617919921875e-05
6.996095180511475e-05
7.674098014831543e-05
8.405745029449463e-05
9.182095527648926e-05
9.982287883758545e-05
0.00010779500007629395
0.00011548399925231934
0.00012236833572387695
0.0001280456781387329
0.00013205409049987793
0.00013390183448791504
0.00013321638107299805
0.0001296699047088623
0.00012293457984924316
0.0001131594181060791
0.00010061264038085938
8.577108383178711e-05
6.939470767974854e-05
5.24371862411499e-05
3.579258918762207e-05
2.03549861907959e-05
6.839632987976074e-06
-4.217028617858887e-06
-1.2740492820739746e-05
-1.870095729827881e-05
-2.2426247596740723e-05
-2.434849739074707e-05
-2.5093555450439453e-05
-2.524256706237793e-05
-2.5540590286254883e-05
-2.63899564743042e-05
-2.8342008590698242e-05
-3.1575560569763184e-05
-3.618001937866211e-05
-4.214048385620117e-05
-4.9248337745666504e-05
-5.717575550079346e-05
-6.553530693054199e-05
-7.396936416625977e-05
-8.225440979003906e-05
-9.001791477203369e-05
-9.720027446746826e-05
-0.00010374188423156738
-0.00010962784290313721
-0.00011505186557769775
-0.00012011826038360596
-0.0001248866319656372
-0.0001296401023864746
-0.00013431906700134277
-0.00013905763626098633
-0.00014400482177734375
-0.00014907121658325195
-0.00015434622764587402
-0.0001595914363861084
-0.00016482174396514893
-0.0001700669527053833
-0.0001751333475112915
5.373358726501465e-05
5.218386650085449e-05
5.1021575927734375e-05
5.0187110900878906e-05
4.960596561431885e-05
4.926323890686035e-05
4.8980116844177246e-05
4.875659942626953e-05
4.86522912979126e-05
4.856288433074951e-05
4.8354268074035645e-05
4.820525646209717e-05
4.798173904418945e-05
4.772841930389404e-05
4.744529724121094e-05
4.7147274017333984e-05
4.690885543823242e-05
4.6506524085998535e-05
4.6119093894958496e-05
4.5672059059143066e-05
4.513561725616455e-05
4.4479966163635254e-05
4.3705105781555176e-05
4.272162914276123e-05
4.157423973083496e-05
4.024803638458252e-05
3.883242607116699e-05
3.738701343536377e-05
3.591179847717285e-05
3.46451997756958e-05
3.355741500854492e-05
3.285706043243408e-05
3.263354301452637e-05
3.3020973205566406e-05
3.4049153327941895e-05
3.5881996154785156e-05
3.853440284729004e-05
4.209578037261963e-05
4.659593105316162e-05
5.206465721130371e-05
5.85019588470459e-05
6.617605686187744e-05
7.508695125579834e-05
8.526444435119629e-05
9.690225124359131e-05
0.00011008977890014648
0.00012449920177459717
0.00013990700244903564
0.00015613436698913574
0.00017230212688446045
0.00018775463104248047
0.00020170211791992188
0.00021313130855560303
0.00022114813327789307
0.00022499263286590576
0.00022374093532562256
0.0002171546220779419
0.0002050846815109253
0.00018781423568725586
0.0001662224531173706
0.0001414269208908081
0.0001150369644165039
8.845329284667969e-05
6.338953971862793e-05
4.0844082832336426e-05
2.174079418182373e-05
6.586313247680664e-06
-4.649162292480469e-06
-1.214444637298584e-05
-1.6674399375915527e-05
-1.887977123260498e-05
-1.9595026969909668e-05
-1.965463161468506e-05
-1.9922852516174316e-05
-2.09808349609375e-05
-2.326071262359619e-05
-2.7105212211608887e-05
-3.2454729080200195e-05
-3.917515277862549e-05