# vtk DataFile Version 3.0
2D PINN Solution
ASCII
DATASET STRUCTURED_GRID
DIMENSIONS 100 100 1
POINTS 10000 float
-1.0 -1.0 0.0
-0.9797979797979798 -1.0 0.0
-0.9595959595959596 -1.0 0.0
-0.9393939393939394 -1.0 0.0
-0.9191919191919192 -1.0 0.0
-0.898989898989899 -1.0 0.0
-0.8787878787878788 -1.0 0.0
-0.8585858585858586 -1.0 0.0
-0.8383838383838383 -1.0 0.0
-0.8181818181818181 -1.0 0.0
-0.797979797979798 -1.0 0.0
-0.7777777777777778 -1.0 0.0
-0.7575757575757576 -1.0 0.0
-0.7373737373737373 -1.0 0.0
-0.7171717171717171 -1.0 0.0
-0.696969696969697 -1.0 0.0
-0.6767676767676767 -1.0 0.0
-0.6565656565656566 -1.0 0.0
-0.6363636363636364 -1.0 0.0
-0.6161616161616161 -1.0 0.0
-0.5959595959595959 -1.0 0.0
-0.5757575757575757 -1.0 0.0
-0.5555555555555556 -1.0 0.0
-0.5353535353535352 -1.0 0.0
-0.5151515151515151 -1.0 0.0
-0.4949494949494949 -1.0 0.0
-0.4747474747474747 -1.0 0.0
-0.4545454545454545 -1.0 0.0
-0.43434343434343425 -1.0 0.0
-0.41414141414141414 -1.0 0.0
-0.3939393939393939 -1.0 0.0
-0.3737373737373737 -1.0 0.0
-0.3535353535353535 -1.0 0.0
-0.33333333333333326 -1.0 0.0
-0.31313131313131304 -1.0 0.0
-0.2929292929292928 -1.0 0.0
-0.2727272727272727 -1.0 0.0
-0.2525252525252525 -1.0 0.0
-0.23232323232323226 -1.0 0.0
-0.21212121212121204 -1.0 0.0
-0.19191919191919182 -1.0 0.0
-0.1717171717171716 -1.0 0.0
-0.1515151515151515 -1.0 0.0
-0.13131313131313127 -1.0 0.0
-0.11111111111111105 -1.0 0.0
-0.09090909090909083 -1.0 0.0
-0.07070707070707061 -1.0 0.0
-0.050505050505050386 -1.0 0.0
-0.030303030303030276 -1.0 0.0
-0.010101010101010055 -1.0 0.0
0.010101010101010166 -1.0 0.0
0.030303030303030498 -1.0 0.0
0.05050505050505061 -1.0 0.0
0.07070707070707072 -1.0 0.0
0.09090909090909105 -1.0 0.0
0.11111111111111116 -1.0 0.0
0.1313131313131315 -1.0 0.0
0.1515151515151516 -1.0 0.0
0.1717171717171717 -1.0 0.0
0.19191919191919204 -1.0 0.0
0.21212121212121215 -1.0 0.0
0.2323232323232325 -1.0 0.0
0.2525252525252526 -1.0 0.0
0.27272727272727293 -1.0 0.0
0.29292929292929304 -1.0 0.0
0.31313131313131315 -1.0 0.0
0.3333333333333335 -1.0 0.0
0.3535353535353536 -1.0 0.0
0.3737373737373739 -1.0 0.0
0.39393939393939403 -1.0 0.0
0.41414141414141437 -1.0 0.0
0.4343434343434345 -1.0 0.0
0.4545454545454546 -1.0 0.0
0.4747474747474749 -1.0 0.0
0.49494949494949503 -1.0 0.0
0.5151515151515154 -1.0 0.0
0.5353535353535355 -1.0 0.0
0.5555555555555556 -1.0 0.0
0.5757575757575759 -1.0 0.0
0.595959595959596 -1.0 0.0
0.6161616161616164 -1.0 0.0
0.6363636363636365 -1.0 0.0
0.6565656565656568 -1.0 0.0
0.6767676767676769 -1.0 0.0
0.696969696969697 -1.0 0.0
0.7171717171717173 -1.0 0.0
0.7373737373737375 -1.0 0.0
0.7575757575757578 -1.0 0.0
0.7777777777777779 -1.0 0.0
0.7979797979797982 -1.0 0.0
0.8181818181818183 -1.0 0.0
0.8383838383838385 -1.0 0.0
0.8585858585858588 -1.0 0.0
0.8787878787878789 -1.0 0.0
0.8989898989898992 -1.0 0.0
0.9191919191919193 -1.0 0.0
0.9393939393939394 -1.0 0.0
0.9595959595959598 -1.0 0.0
0.9797979797979799 -1.0 0.0
1.0 -1.0 0.0
-1.0 -0.9797979797979798 0.0
-0.9797979797979798 -0.9797979797979798 0.0
-0.9595959595959596 -0.9797979797979798 0.0
-0.9393939393939394 -0.9797979797979798 0.0
-0.9191919191919192 -0.9797979797979798 0.0
-0.898989898989899 -0.9797979797979798 0.0
-0.8787878787878788 -0.9797979797979798 0.0
-0.8585858585858586 -0.9797979797979798 0.0
-0.8383838383838383 -0.9797979797979798 0.0
-0.8181818181818181 -0.9797979797979798 0.0
-0.797979797979798 -0.9797979797979798 0.0
-0.7777777777777778 -0.9797979797979798 0.0
-0.7575757575757576 -0.9797979797979798 0.0
-0.7373737373737373 -0.9797979797979798 0.0
-0.7171717171717171 -0.9797979797979798 0.0
-0.696969696969697 -0.9797979797979798 0.0
-0.6767676767676767 -0.9797979797979798 0.0
-0.6565656565656566 -0.9797979797979798 0.0
-0.6363636363636364 -0.9797979797979798 0.0
-0.6161616161616161 -0.9797979797979798 0.0
-0.5959595959595959 -0.9797979797979798 0.0
-0.5757575757575757 -0.9797979797979798 0.0
-0.5555555555555556 -0.9797979797979798 0.0
-0.5353535353535352 -0.9797979797979798 0.0
-0.5151515151515151 -0.9797979797979798 0.0
-0.4949494949494949 -0.9797979797979798 0.0
-0.4747474747474747 -0.9797979797979798 0.0
-0.4545454545454545 -0.9797979797979798 0.0
-0.43434343434343425 -0.9797979797979798 0.0
-0.41414141414141414 -0.9797979797979798 0.0
-0.3939393939393939 -0.9797979797979798 0.0
-0.3737373737373737 -0.9797979797979798 0.0
-0.3535353535353535 -0.9797979797979798 0.0
-0.33333333333333326 -0.9797979797979798 0.0
-0.31313131313131304 -0.9797979797979798 0.0
-0.2929292929292928 -0.9797979797979798 0.0
-0.2727272727272727 -0.9797979797979798 0.0
-0.2525252525252525 -0.9797979797979798 0.0
-0.23232323232323226 -0.9797979797979798 0.0
-0.21212121212121204 -0.9797979797979798 0.0
-0.19191919191919182 -0.9797979797979798 0.0
-0.1717171717171716 -0.9797979797979798 0.0
-0.1515151515151515 -0.9797979797979798 0.0
-0.13131313131313127 -0.9797979797979798 0.0
-0.11111111111111105 -0.9797979797979798 0.0
-0.09090909090909083 -0.9797979797979798 0.0
-0.07070707070707061 -0.9797979797979798 0.0
-0.050505050505050386 -0.9797979797979798 0.0
-0.030303030303030276 -0.9797979797979798 0.0
-0.010101010101010055 -0.9797979797979798 0.0
0.010101010101010166 -0.9797979797979798 0.0
0.030303030303030498 -0.9797979797979798 0.0
0.05050505050505061 -0.9797979797979798 0.0
0.07070707070707072 -0.9797979797979798 0.0
0.09090909090909105 -0.9797979797979798 0.0
0.11111111111111116 -0.9797979797979798 0.0
0.1313131313131315 -0.9797979797979798 0.0
0.1515151515151516 -0.9797979797979798 0.0
0.1717171717171717 -0.9797979797979798 0.0
0.19191919191919204 -0.9797979797979798 0.0
0.21212121212121215 -0.9797979797979798 0.0
0.2323232323232325 -0.9797979797979798 0.0
0.2525252525252526 -0.9797979797979798 0.0
0.27272727272727293 -0.9797979797979798 0.0
0.29292929292929304 -0.9797979797979798 0.0
0.31313131313131315 -0.9797979797979798 0.0
0.3333333333333335 -0.9797979797979798 0.0
0.3535353535353536 -0.9797979797979798 0.0
0.3737373737373739 -0.9797979797979798 0.0
0.39393939393939403 -0.9797979797979798 0.0
0.41414141414141437 -0.9797979797979798 0.0
0.4343434343434345 -0.9797979797979798 0.0
0.4545454545454546 -0.9797979797979798 0.0
0.4747474747474749 -0.9797979797979798 0.0
0.49494949494949503 -0.9797979797979798 0.0
0.5151515151515154 -0.9797979797979798 0.0
0.5353535353535355 -0.9797979797979798 0.0
0.5555555555555556 -0.9797979797979798 0.0
0.5757575757575759 -0.9797979797979798 0.0
0.595959595959596 -0.9797979797979798 0.0
0.6161616161616164 -0.9797979797979798 0.0
0.6363636363636365 -0.9797979797979798 0.0
0.6565656565656568 -0.9797979797979798 0.0
0.6767676767676769 -0.9797979797979798 0.0
0.696969696969697 -0.9797979797979798 0.0
0.7171717171717173 -0.9797979797979798 0.0
0.7373737373737375 -0.9797979797979798 0.0
0.7575757575757578 -0.9797979797979798 0.0
0.7777777777777779 -0.9797979797979798 0.0
0.7979797979797982 -0.9797979797979798 0.0
0.8181818181818183 -0.9797979797979798 0.0
0.8383838383838385 -0.9797979797979798 0.0
0.8585858585858588 -0.9797979797979798 0.0
0.8787878787878789 -0.9797979797979798 0.0
0.8989898989898992 -0.9797979797979798 0.0
0.9191919191919193 -0.9797979797979798 0.0
0.9393939393939394 -0.9797979797979798 0.0
0.9595959595959598 -0.9797979797979798 0.0
0.9797979797979799 -0.9797979797979798 0.0
1.0 -0.9797979797979798 0.0
-1.0 -0.9595959595959596 0.0
-0.9797979797979798 -0.9595959595959596 0.0
-0.9595959595959596 -0.9595959595959596 0.0
-0.9393939393939394 -0.9595959595959596 0.0
-0.9191919191919192 -0.9595959595959596 0.0
-0.898989898989899 -0.9595959595959596 0.0
-0.8787878787878788 -0.9595959595959596 0.0
-0.8585858585858586 -0.9595959595959596 0.0
-0.8383838383838383 -0.9595959595959596 0.0
-0.8181818181818181 -0.9595959595959596 0.0
-0.797979797979798 -0.9595959595959596 0.0
-0.7777777777777778 -0.9595959595959596 0.0
-0.7575757575757576 -0.9595959595959596 0.0
-0.7373737373737373 -0.9595959595959596 0.0
-0.7171717171717171 -0.9595959595959596 0.0
-0.696969696969697 -0.9595959595959596 0.0
-0.6767676767676767 -0.9595959595959596 0.0
-0.6565656565656566 -0.9595959595959596 0.0
-0.6363636363636364 -0.9595959595959596 0.0
-0.6161616161616161 -0.9595959595959596 0.0
-0.5959595959595959 -0.9595959595959596 0.0
-0.5757575757575757 -0.9595959595959596 0.0
-0.5555555555555556 -0.9595959595959596 0.0
-0.5353535353535352 -0.9595959595959596 0.0
-0.5151515151515151 -0.9595959595959596 0.0
-0.4949494949494949 -0.9595959595959596 0.0
-0.4747474747474747 -0.9595959595959596 0.0
-0.4545454545454545 -0.9595959595959596 0.0
-0.43434343434343425 -0.9595959595959596 0.0
-0.41414141414141414 -0.9595959595959596 0.0
-0.3939393939393939 -0.9595959595959596 0.0
-0.3737373737373737 -0.9595959595959596 0.0
-0.3535353535353535 -0.9595959595959596 0.0
-0.33333333333333326 -0.9595959595959596 0.0
-0.31313131313131304 -0.9595959595959596 0.0
-0.2929292929292928 -0.9595959595959596 0.0
-0.2727272727272727 -0.9595959595959596 0.0
-0.2525252525252525 -0.9595959595959596 0.0
-0.23232323232323226 -0.9595959595959596 0.0
-0.21212121212121204 -0.9595959595959596 0.0
-0.19191919191919182 -0.9595959595959596 0.0
-0.1717171717171716 -0.9595959595959596 0.0
-0.1515151515151515 -0.9595959595959596 0.0
-0.13131313131313127 -0.9595959595959596 0.0
-0.11111111111111105 -0.9595959595959596 0.0
-0.09090909090909083 -0.9595959595959596 0.0
-0.07070707070707061 -0.9595959595959596 0.0
-0.050505050505050386 -0.9595959595959596 0.0
-0.030303030303030276 -0.9595959595959596 0.0
-0.010101010101010055 -0.9595959595959596 0.0
0.010101010101010166 -0.9595959595959596 0.0
0.030303030303030498 -0.9595959595959596 0.0
0.05050505050505061 -0.9595959595959596 0.0
0.07070707070707072 -0.9595959595959596 0.0
0.09090909090909105 -0.9595959595959596 0.0
0.11111111111111116 -0.9595959595959596 0.0
0.1313131313131315 -0.9595959595959596 0.0
0.1515151515151516 -0.9595959595959596 0.0
0.1717171717171717 -0.9595959595959596 0.0
0.19191919191919204 -0.9595959595959596 0.0
0.21212121212121215 -0.9595959595959596 0.0
[...]
POINT_DATA 10000
SCALARS u float 1
LOOKUP_TABLE default
0.00012192130088806152
0.00011646747589111328
0.00011089444160461426
0.00010508298873901367
9.919703006744385e-05
9.328126907348633e-05
8.735060691833496e-05
8.149445056915283e-05
7.575750350952148e-05
7.018446922302246e-05
6.490945816040039e-05
5.9977173805236816e-05
5.532801151275635e-05
5.1081180572509766e-05
4.723668098449707e-05
4.380941390991211e-05
4.069507122039795e-05
3.7983059883117676e-05
3.5509467124938965e-05
3.331899642944336e-05
3.121793270111084e-05
2.925097942352295e-05
2.73287296295166e-05
2.543628215789795e-05
2.3543834686279297e-05
2.181529998779297e-05
2.0116567611694336e-05
1.8611550331115723e-05
1.741945743560791e-05
1.6570091247558594e-05
1.6182661056518555e-05
1.6301870346069336e-05
1.6987323760986328e-05
1.8134713172912598e-05
1.9848346710205078e-05
2.193450927734375e-05
2.4363398551940918e-05
2.6926398277282715e-05
2.956390380859375e-05
3.199279308319092e-05
3.4183263778686523e-05
3.5881996154785156e-05
3.7223100662231445e-05
3.796815872192383e-05
3.822147846221924e-05
3.7997961044311523e-05
3.7282705307006836e-05
3.6329030990600586e-05
3.5315752029418945e-05
3.4362077713012695e-05
3.390014171600342e-05
3.40193510055542e-05
3.509223461151123e-05
3.731250762939453e-05
4.0903687477111816e-05
4.595518112182617e-05
5.251169204711914e-05
6.039440631866455e-05
6.93202018737793e-05
7.881224155426025e-05
8.830428123474121e-05
9.702146053314209e-05
0.0001042783260345459
0.00010928511619567871
0.00011186301708221436
0.00011175870895385742
0.00010943412780761719
0.00010506808757781982
9.95248556137085e-05
9.310245513916016e-05
8.61138105392456e-05
7.870793342590332e-05
7.075071334838867e-05
6.225705146789551e-05
5.334615707397461e-05
4.4092535972595215e-05
3.471970558166504e-05
2.5480985641479492e-05
1.6644597053527832e-05
8.493661880493164e-06
1.3560056686401367e-06
-4.5299530029296875e-06
-8.77678394317627e-06
-1.1265277862548828e-05
-1.2010335922241211e-05
-1.1086463928222656e-05
-9.08970832824707e-06
-6.452202796936035e-06
-4.112720489501953e-06
-2.9802322387695312e-06
-3.9637088775634766e-06
-7.82310962677002e-06
-1.5169382095336914e-05
-2.6345252990722656e-05
-4.1037797927856445e-05
-5.899369716644287e-05
-7.94827938079834e-05
-0.00010150671005249023
-0.0001242607831954956
-0.00014662742614746094
0.00012513995170593262
0.00011910498142242432
0.00011295080184936523
0.00010666251182556152
0.00010028481483459473
9.384751319885254e-05
8.74549150466919e-05
8.115172386169434e-05
7.499754428863525e-05
6.906688213348389e-05
6.343424320220947e-05
5.8084726333618164e-05
5.316734313964844e-05
4.86224889755249e-05
4.45246696472168e-05
4.082918167114258e-05
3.758072853088379e-05
3.466010093688965e-05
3.2067298889160156e-05
2.9668211936950684e-05
2.7626752853393555e-05
2.562999725341797e-05
2.3812055587768555e-05
2.2038817405700684e-05
2.0459294319152832e-05
1.895427703857422e-05
1.755356788635254e-05
1.6421079635620117e-05
1.5527009963989258e-05
1.4990568161010742e-05
1.4841556549072266e-05
1.5094876289367676e-05
1.5810132026672363e-05
1.6897916793823242e-05
1.8298625946044922e-05
1.9997358322143555e-05
2.1830201148986816e-05
2.3692846298217773e-05
2.5451183319091797e-05
2.695620059967041e-05
2.8207898139953613e-05
2.9131770133972168e-05
2.9593706130981445e-05
2.9668211936950684e-05
2.937018871307373e-05
2.874433994293213e-05
2.7894973754882812e-05
2.6926398277282715e-05
2.5957822799682617e-05
2.524256706237793e-05
2.4899840354919434e-05
2.5227665901184082e-05
2.6404857635498047e-05
2.8640031814575195e-05
3.2141804695129395e-05
3.699958324432373e-05
4.32133674621582e-05
5.0887465476989746e-05
5.967915058135986e-05
6.942451000213623e-05
7.942318916320801e-05
8.909404277801514e-05
9.769201278686523e-05
0.00010450184345245361
0.00010898709297180176
0.00011086463928222656
0.0001102834939956665
0.00010757148265838623
0.00010326504707336426
9.79304313659668e-05
9.174644947052002e-05
8.496642112731934e-05
7.750093936920166e-05
6.937980651855469e-05
6.051361560821533e-05
5.11854887008667e-05
4.158914089202881e-05
3.202259540557861e-05
2.2739171981811523e-05
1.4126300811767578e-05
6.452202796936035e-06
-2.9802322387695312e-08
-5.081295967102051e-06
-8.463859558105469e-06
-1.029670238494873e-05
-1.0520219802856445e-05
-9.432435035705566e-06
-7.644295692443848e-06
-5.796551704406738e-06
-4.783272743225098e-06
-5.319714546203613e-06
-8.255243301391602e-06
-1.4171004295349121e-05
-2.3543834686279297e-05
-3.6343932151794434e-05
-5.233287811279297e-05
-7.100403308868408e-05
-9.15825366973877e-05
-0.00011320412158966064
-0.00013497471809387207
0.000126570463180542
0.00011989474296569824
0.0001131892204284668
0.00010634958744049072
9.945034980773926e-05
9.256601333618164e-05
8.577108383178711e-05
7.911026477813721e-05
7.262825965881348e-05
6.6414475440979e-05
6.048381328582764e-05
5.4955482482910156e-05
4.984438419342041e-05
4.5180320739746094e-05
4.0978193283081055e-05
3.713369369506836e-05
3.376603126525879e-05
3.0800700187683105e-05
2.8178095817565918e-05
2.586841583251953e-05
2.3826956748962402e-05
2.2023916244506836e-05
2.0325183868408203e-05
1.8805265426635742e-05
1.749396324157715e-05
1.6361474990844727e-05
1.5363097190856934e-05
1.4573335647583008e-05
1.4156103134155273e-05
1.3962388038635254e-05
1.4126300811767578e-05
1.4603137969970703e-05
1.5407800674438477e-05
1.6480684280395508e-05
1.773238182067871e-05
1.9118189811706543e-05
2.047419548034668e-05
2.1770596504211426e-05
2.2843480110168457e-05
2.3618340492248535e-05
2.41696834564209e-05
2.4273991584777832e-05
2.4139881134033203e-05
2.3692846298217773e-05
2.288818359375e-05
2.205371856689453e-05
2.104043960571289e-05
2.0101666450500488e-05
1.9282102584838867e-05
1.8864870071411133e-05
1.8790364265441895e-05
1.93864107131958e-05
2.0697712898254395e-05
2.2962689399719238e-05
2.63899564743042e-05
3.089010715484619e-05
3.674626350402832e-05
4.385411739349365e-05
5.224347114562988e-05
6.16908073425293e-05
7.171928882598877e-05
8.186697959899902e-05
9.138882160186768e-05
9.95248556137085e-05
0.00010567903518676758
0.0001093447208404541
0.00011055171489715576
0.00010949373245239258
0.00010660290718078613
0.00010244548320770264
9.731948375701904e-05
9.129941463470459e-05
8.440017700195312e-05
7.668137550354004e-05
6.797909736633301e-05
5.862116813659668e-05
4.881620407104492e-05
3.884732723236084e-05
2.9146671295166016e-05
2.0042061805725098e-05
1.1816620826721191e-05
4.693865776062012e-06
-1.0728836059570312e-06
-5.27501106262207e-06
-7.927417755126953e-06
-9.104609489440918e-06
-9.03010368347168e-06
-8.106231689453125e-06
-6.884336471557617e-06
-6.124377250671387e-06
-6.556510925292969e-06
-8.910894393920898e-06
-1.3828277587890625e-05
-2.1755695343017578e-05
-3.294646739959717e-05
-4.7147274017333984e-05
-6.410479545593262e-05
-8.316338062286377e-05
-0.0001035928726196289
-0.00012449920177459717
0.0001261383295059204
0.00011894106864929199
0.00011160969734191895
0.00010420382022857666
9.691715240478516e-05
8.958578109741211e-05
8.241832256317139e-05
7.547438144683838e-05
6.872415542602539e-05
6.227195262908936e-05
5.62518835067749e-05
5.0634145736694336e-05
4.540383815765381e-05
4.0665268898010254e-05
3.644824028015137e-05
3.267824649810791e-05
2.9355287551879883e-05
2.6494264602661133e-05
2.3931264877319336e-05
2.1785497665405273e-05
1.9937753677368164e-05
1.8328428268432617e-05
1.6957521438598633e-05
1.582503318786621e-05
1.481175422668457e-05
1.4096498489379883e-05
1.360476016998291e-05
1.3276934623718262e-05
1.329183578491211e-05
1.3515353202819824e-05
1.4096498489379883e-05
1.481175422668457e-05
1.58846378326416e-05
1.7017126083374023e-05
1.823902130126953e-05
1.944601535797119e-05
2.0548701286315918e-05
2.1338462829589844e-05
2.1949410438537598e-05
2.218782901763916e-05
2.2113323211669922e-05
2.1710991859436035e-05
2.0965933799743652e-05
2.0071864128112793e-05
1.8998980522155762e-05
1.792609691619873e-05
1.691281795501709e-05
1.607835292816162e-05
1.5497207641601562e-05
1.531839370727539e-05
1.564621925354004e-05
1.6614794731140137e-05
1.825392246246338e-05
2.060830593109131e-05
2.390146255493164e-05
2.8133392333984375e-05
3.342330455780029e-05
3.986060619354248e-05
4.749000072479248e-05
5.622208118438721e-05
6.57886266708374e-05
7.581710815429688e-05
8.575618267059326e-05
9.478628635406494e-05
0.00010216236114501953
0.00010751187801361084
0.00011038780212402344
0.00011099874973297119
0.00010961294174194336
0.00010675191879272461
0.00010263919830322266
9.749829769134521e-05
9.140372276306152e-05
8.414685726165771e-05
7.572770118713379e-05
6.64442777633667e-05
5.6371092796325684e-05
4.6059489250183105e-05
3.586709499359131e-05
2.6181340217590332e-05
1.7404556274414062e-05
9.655952453613281e-06
3.2186508178710938e-06
-1.6987323760986328e-06
-5.155801773071289e-06
-7.227063179016113e-06
-8.001923561096191e-06
-7.852911949157715e-06
-7.286667823791504e-06
-6.943941116333008e-06
-7.420778274536133e-06
-9.521842002868652e-06
-1.3738870620727539e-05
-2.0638108253479004e-05
-3.0487775802612305e-05
-4.32133674621582e-05
-5.863606929779053e-05
-7.627904415130615e-05
-9.542703628540039e-05
-0.00011546909809112549
0.0001239478588104248
0.00011605024337768555
0.00010816752910614014
0.00010026991367340088
9.258091449737549e-05
8.487701416015625e-05
7.739663124084473e-05
7.0229172706604e-05
6.332993507385254e-05
5.6803226470947266e-05
5.072355270385742e-05
4.507601261138916e-05
3.993511199951172e-05
3.528594970703125e-05
3.1188130378723145e-05
2.7507543563842773e-05
2.4393200874328613e-05
2.1725893020629883e-05
1.944601535797119e-05
1.7568469047546387e-05
1.601874828338623e-05
1.4722347259521484e-05
1.3723969459533691e-05
1.2919306755065918e-05
1.2502074241638184e-05
1.2263655662536621e-05
1.2248754501342773e-05
1.2531876564025879e-05
1.3068318367004395e-05
1.385807991027832e-05
1.4856457710266113e-05
1.6108155250549316e-05
1.741945743560791e-05
1.8775463104248047e-05
2.008676528930664e-05
2.1204352378845215e-05
2.2158026695251465e-05
2.2679567337036133e-05
2.2932887077331543e-05
2.2739171981811523e-05
2.2172927856445312e-05
2.1338462829589844e-05
2.016127109527588e-05
1.8924474716186523e-05
1.7583370208740234e-05
1.6361474990844727e-05
1.537799835205078e-05
1.4677643775939941e-05
1.4424324035644531e-05
1.4632940292358398e-05
1.5422701835632324e-05
1.6808509826660156e-05
1.8835067749023438e-05
2.1517276763916016e-05
2.47955322265625e-05
2.8789043426513672e-05
3.357231616973877e-05
3.9264559745788574e-05
4.5865774154663086e-05
5.3569674491882324e-05
6.216764450073242e-05
7.157027721405029e-05
8.133053779602051e-05
9.070336818695068e-05
9.898841381072998e-05
0.00010557472705841064
0.00010994076728820801
0.00011207163333892822
0.00011216104030609131
0.00011064112186431885
0.00010773539543151855
0.00010360777378082275
9.834766387939453e-05
9.179115295410156e-05
8.375942707061768e-05
7.458031177520752e-05
6.443262100219727e-05
5.373358726501465e-05
4.3019652366638184e-05
3.2782554626464844e-05
2.3305416107177734e-05
1.4886260032653809e-05
7.808208465576172e-06
2.1010637283325195e-06
-2.115964889526367e-06
-4.902482032775879e-06
-6.467103958129883e-06
-7.048249244689941e-06
-7.167458534240723e-06
-7.271766662597656e-06
-7.927417755126953e-06
-9.968876838684082e-06
-1.379847526550293e-05
-1.996755599975586e-05
-2.8759241104125977e-05
-4.0277838706970215e-05
-5.440413951873779e-05
-7.072091102600098e-05
-8.864700794219971e-05
-0.00010772049427032471
0.00012001395225524902
0.00011146068572998047
0.000102996826171875
9.463727474212646e-05
8.647143840789795e-05
7.8544020652771e-05
7.089972496032715e-05
6.350874900817871e-05
5.65946102142334e-05
5.011260509490967e-05
4.410743713378906e-05
3.860890865325928e-05
3.364682197570801e-05
2.9221177101135254e-05
2.5346875190734863e-05
2.1979212760925293e-05
1.9162893295288086e-05
1.679360866546631e-05
1.4886260032653809e-05
1.3336539268493652e-05
1.2174248695373535e-05
1.1369585990905762e-05
1.0848045349121094e-05
1.0639429092407227e-05
1.068413257598877e-05
1.1026859283447266e-05
1.1667609214782715e-05
1.2621283531188965e-05
1.3783574104309082e-05
1.5184283256530762e-05
1.679360866546631e-05
1.8462538719177246e-05
2.0191073417663574e-05
2.187490463256836e-05
2.3320317268371582e-05
2.4557113647460938e-05
2.537667751312256e-05
2.5793910026550293e-05
2.5779008865356445e-05
2.5287270545959473e-05
2.4378299713134766e-05
2.3156404495239258e-05
2.1725893020629883e-05
2.0056962966918945e-05
1.8581748008728027e-05
1.7270445823669434e-05
1.6286969184875488e-05
1.576542854309082e-05
1.582503318786621e-05
1.6480684280395508e-05
1.7821788787841797e-05
1.971423625946045e-05
2.230703830718994e-05
2.5406479835510254e-05
2.8908252716064453e-05
3.2842159271240234e-05
3.723800182342529e-05
4.209578037261963e-05
4.766881465911865e-05
5.397200584411621e-05
6.13182783126831e-05
6.961822509765625e-05
7.85142183303833e-05
8.772313594818115e-05
9.635090827941895e-05
0.00010371208190917969
0.00010932981967926025
0.00011283159255981445
0.0001144111156463623
0.00011411309242248535
0.00011251866817474365
0.00010947883129119873
0.00010523200035095215
9.942054748535156e-05
9.204447269439697e-05
8.308887481689453e-05
7.286667823791504e-05
6.192922592163086e-05
5.0649046897888184e-05
3.975629806518555e-05
2.956390380859375e-05
2.0429491996765137e-05
1.2546777725219727e-05
6.198883056640625e-06
1.2218952178955078e-06
-2.250075340270996e-06
-4.4852495193481445e-06
-5.796551704406738e-06
-6.496906280517578e-06
-7.063150405883789e-06
-8.061528205871582e-06
-1.0162591934204102e-05
-1.3738870620727539e-05
-1.944601535797119e-05
-2.7477741241455078e-05
-3.8042664527893066e-05
-5.100667476654053e-05
-6.61611557006836e-05
-8.308887481689453e-05
-0.00010116398334503174
0.00011417269706726074
0.00010506808757781982
9.605288505554199e-05
8.730590343475342e-05
7.88569450378418e-05
7.067620754241943e-05
6.292760372161865e-05
5.56260347366333e-05
4.8741698265075684e-05
4.236400127410889e-05
3.662705421447754e-05
3.135204315185547e-05
2.6717782020568848e-05
2.2619962692260742e-05
1.913309097290039e-05
1.6227364540100098e-05
1.3843178749084473e-05
1.189112663269043e-05
1.043081283569336e-05
9.402632713317871e-06
8.746981620788574e-06
8.478760719299316e-06
8.597970008850098e-06
8.940696716308594e-06
9.745359420776367e-06
1.0773539543151855e-05
1.2129545211791992e-05
1.3768672943115234e-05
1.564621925354004e-05
1.774728298187256e-05
1.9952654838562012e-05
2.218782901763916e-05
2.4393200874328613e-05
2.6419758796691895e-05
2.8148293495178223e-05
2.950429916381836e-05
3.0338764190673828e-05
3.072619438171387e-05
3.057718276977539e-05
2.9861927032470703e-05
2.8640031814575195e-05
2.714991569519043e-05
2.54213809967041e-05
2.3558735847473145e-05
2.187490463256836e-05
2.047419548034668e-05
1.9475817680358887e-05
1.9162893295288086e-05
1.9475817680358887e-05
2.0563602447509766e-05
2.2411346435546875e-05
2.4974346160888672e-05
2.8178095817565918e-05
3.178417682647705e-05
3.5762786865234375e-05
3.981590270996094e-05
4.398822784423828e-05
4.820525646209717e-05
5.272030830383301e-05
5.766749382019043e-05
6.341934204101562e-05
7.013976573944092e-05
7.782876491546631e-05
8.615851402282715e-05
9.453296661376953e-05
0.00010232627391815186
0.00010877847671508789
0.00011351704597473145
0.00011627376079559326
0.00011737644672393799
0.0001169443130493164
0.00011517107486724854
0.0001119375228881836
0.0001070946455001831
0.00010038912296295166
9.18358564376831e-05
8.171796798706055e-05
7.048249244689941e-05
5.8785080909729004e-05
4.7266483306884766e-05
3.628432750701904e-05
2.6285648345947266e-05
1.7687678337097168e-05
1.049041748046875e-05
4.827976226806641e-06
6.258487701416016e-07
-2.339482307434082e-06
-4.187226295471191e-06
-5.46872615814209e-06
-6.4820051193237305e-06
-7.808208465576172e-06
-1.0028481483459473e-05
-1.354515552520752e-05
-1.8909573554992676e-05
-2.6404857635498047e-05
-3.62396240234375e-05
-4.832446575164795e-05
-6.252527236938477e-05
-7.852911949157715e-05
-9.572505950927734e-05
0.0001064985990524292
9.678304195404053e-05
8.748471736907959e-05
7.840991020202637e-05
6.975233554840088e-05
6.160140037536621e-05
5.385279655456543e-05
4.665553569793701e-05
3.999471664428711e-05
3.392994403839111e-05
2.8535723686218262e-05
2.372264862060547e-05
1.9535422325134277e-05
1.5988945960998535e-05
1.2993812561035156e-05
1.0579824447631836e-05
8.791685104370117e-06
7.37607479095459e-06
6.5267086029052734e-06
6.094574928283691e-06
6.094574928283691e-06
6.4373016357421875e-06
7.212162017822266e-06
8.344650268554688e-06
9.79006290435791e-06
1.163780689239502e-05
1.3872981071472168e-05
1.621246337890625e-05
1.887977123260498e-05
2.1755695343017578e-05
2.4616718292236328e-05
2.746284008026123e-05
3.0115246772766113e-05
3.260374069213867e-05
3.4615397453308105e-05
3.6090612411499023e-05
3.7103891372680664e-05
3.746151924133301e-05
3.713369369506836e-05
3.625452518463135e-05
3.489851951599121e-05
3.312528133392334e-05
3.115832805633545e-05
2.905726432800293e-05
2.7194619178771973e-05
2.5659799575805664e-05
2.467632293701172e-05
2.440810203552246e-05
2.491474151611328e-05
2.6360154151916504e-05
2.8684735298156738e-05
3.191828727722168e-05
3.577768802642822e-05
4.0084123611450195e-05
4.461407661437988e-05
4.9054622650146484e-05
5.3241848945617676e-05
5.714595317840576e-05
6.076693534851074e-05
6.437301635742188e-05
6.841123104095459e-05
7.332861423492432e-05
7.924437522888184e-05
8.629262447357178e-05
9.390711784362793e-05
0.00010155141353607178
0.0001084357500076294
0.00011397898197174072
0.00011785328388214111
0.00012020766735076904
0.00012104213237762451
0.00012046098709106445
0.00011843442916870117
0.00011456012725830078
0.0001086890697479248
0.00010073184967041016
9.079277515411377e-05
7.95125961303711e-05
6.744265556335449e-05
5.523860454559326e-05
4.346668720245361e-05
3.263354301452637e-05
2.3156404495239258e-05
1.5094876289367676e-05
8.64267349243164e-06
3.6507844924926758e-06
7.450580596923828e-08
-2.3990869522094727e-06
-4.187226295471191e-06
-5.632638931274414e-06
-7.3015689849853516e-06
-9.611248970031738e-06
-1.315772533416748e-05
-1.8283724784851074e-05
-2.536177635192871e-05
-3.46451997756958e-05
-4.610419273376465e-05
-5.9545040130615234e-05
-7.471442222595215e-05
-9.116530418395996e-05
9.703636169433594e-05
8.696317672729492e-05
7.733702659606934e-05
6.818771362304688e-05
5.950033664703369e-05
5.1409006118774414e-05
4.3898820877075195e-05
3.707408905029297e-05
3.078579902648926e-05
2.5272369384765625e-05
2.03549861907959e-05
1.609325408935547e-05
1.2487173080444336e-05
9.611248970031738e-06
7.256865501403809e-06
5.513429641723633e-06
4.32133674621582e-06
3.6656856536865234e-06
3.4570693969726562e-06
3.725290298461914e-06
4.380941390991211e-06
5.498528480529785e-06
7.092952728271484e-06
8.970499038696289e-06
1.1295080184936523e-05
1.4007091522216797e-05
1.6987323760986328e-05
2.0265579223632812e-05
2.378225326538086e-05
2.73287296295166e-05
3.0860304832458496e-05
3.428757190704346e-05
3.74913215637207e-05
4.0277838706970215e-05
4.260241985321045e-05
4.4286251068115234e-05
4.528462886810303e-05
4.5612454414367676e-05
4.5239925384521484e-05
4.425644874572754e-05
4.266202449798584e-05
4.073977470397949e-05
3.8504600524902344e-05
3.6269426345825195e-05
3.419816493988037e-05
3.246963024139404e-05
3.1381845474243164e-05
3.109872341156006e-05
3.170967102050781e-05
3.343820571899414e-05
3.6135315895080566e-05
3.984570503234863e-05
4.437565803527832e-05
4.941225051879883e-05
5.4717063903808594e-05
5.97834587097168e-05
6.428360939025879e-05
6.808340549468994e-05
7.107853889465332e-05
7.358193397521973e-05
7.607042789459229e-05
7.897615432739258e-05
8.29547643661499e-05
8.821487426757812e-05
9.457767009735107e-05
0.00010158121585845947
0.00010839104652404785
0.00011450052261352539
0.00011926889419555664
0.00012268126010894775
0.00012467801570892334
0.00012527406215667725
0.00012445449829101562
0.0001217275857925415
0.00011685490608215332
0.00010956823825836182
0.00010013580322265625
8.885562419891357e-05
7.644295692443848e-05
6.370246410369873e-05
5.1140785217285156e-05
3.948807716369629e-05
2.899765968322754e-05
2.008676528930664e-05