# vtk DataFile Version 3.0
2D PINN Solution
ASCII
DATASET STRUCTURED_GRID
DIMENSIONS 100 100 1
POINTS 10000 float
-1.0 -1.0 0.0
-0.9797979797979798 -1.0 0.0
-0.9595959595959596 -1.0 0.0
-0.9393939393939394 -1.0 0.0
-0.9191919191919192 -1.0 0.0
-0.898989898989899 -1.0 0.0
-0.8787878787878788 -1.0 0.0
-0.8585858585858586 -1.0 0.0
-0.8383838383838383 -1.0 0.0
-0.8181818181818181 -1.0 0.0
-0.797979797979798 -1.0 0.0
-0.7777777777777778 -1.0 0.0
-0.7575757575757576 -1.0 0.0
-0.7373737373737373 -1.0 0.0
-0.7171717171717171 -1.0 0.0
-0.696969696969697 -1.0 0.0
-0.6767676767676767 -1.0 0.0
-0.6565656565656566 -1.0 0.0
-0.6363636363636364 -1.0 0.0
-0.6161616161616161 -1.0 0.0
-0.5959595959595959 -1.0 0.0
-0.5757575757575757 -1.0 0.0
-0.5555555555555556 -1.0 0.0
-0.5353535353535352 -1.0 0.0
-0.5151515151515151 -1.0 0.0
-0.4949494949494949 -1.0 0.0
-0.4747474747474747 -1.0 0.0
-0.4545454545454545 -1.0 0.0
-0.43434343434343425 -1.0 0.0
-0.41414141414141414 -1.0 0.0
-0.3939393939393939 -1.0 0.0
-0.3737373737373737 -1.0 0.0
-0.3535353535353535 -1.0 0.0
-0.33333333333333326 -1.0 0.0
-0.31313131313131304 -1.0 0.0
-0.2929292929292928 -1.0 0.0
-0.2727272727272727 -1.0 0.0
-0.2525252525252525 -1.0 0.0
-0.23232323232323226 -1.0 0.0
-0.21212121212121204 -1.0 0.0
-0.19191919191919182 -1.0 0.0
-0.1717171717171716 -1.0 0.0
-0.1515151515151515 -1.0 0.0
-0.13131313131313127 -1.0 0.0
-0.11111111111111105 -1.0 0.0
-0.09090909090909083 -1.0 0.0
-0.07070707070707061 -1.0 0.0
-0.050505050505050386 -1.0 0.0
-0.030303030303030276 -1.0 0.0
-0.010101010101010055 -1.0 0.0
0.010101010101010166 -1.0 0.0
0.030303030303030498 -1.0 0.0
0.05050505050505061 -1.0 0.0
0.07070707070707072 -1.0 0.0
0.09090909090909105 -1.0 0.0
0.11111111111111116 -1.0 0.0
0.1313131313131315 -1.0 0.0
0.1515151515151516 -1.0 0.0
0.1717171717171717 -1.0 0.0
0.19191919191919204 -1.0 0.0
0.21212121212121215 -1.0 0.0
0.2323232323232325 -1.0 0.0
0.2525252525252526 -1.0 0.0
0.27272727272727293 -1.0 0.0
0.29292929292929304 -1.0 0.0
0.31313131313131315 -1.0 0.0
0.3333333333333335 -1.0 0.0
0.3535353535353536 -1.0 0.0
0.3737373737373739 -1.0 0.0
0.39393939393939403 -1.0 0.0
0.41414141414141437 -1.0 0.0
0.4343434343434345 -1.0 0.0
0.4545454545454546 -1.0 0.0
0.4747474747474749 -1.0 0.0
0.49494949494949503 -1.0 0.0
0.5151515151515154 -1.0 0.0
0.5353535353535355 -1.0 0.0
0.5555555555555556 -1.0 0.0
0.5757575757575759 -1.0 0.0
0.595959595959596 -1.0 0.0
0.6161616161616164 -1.0 0.0
0.6363636363636365 -1.0 0.0
0.6565656565656568 -1.0 0.0
0.6767676767676769 -1.0 0.0
0.696969696969697 -1.0 0.0
0.7171717171717173 -1.0 0.0
0.7373737373737375 -1.0 0.0
0.7575757575757578 -1.0 0.0
0.7777777777777779 -1.0 0.0
0.7979797979797982 -1.0 0.0
0.8181818181818183 -1.0 0.0
0.8383838383838385 -1.0 0.0
0.8585858585858588 -1.0 0.0
0.8787878787878789 -1.0 0.0
0.8989898989898992 -1.0 0.0
0.9191919191919193 -1.0 0.0
0.9393939393939394 -1.0 0.0
0.9595959595959598 -1.0 0.0
0.9797979797979799 -1.0 0.0
1.0 -1.0 0.0
-1.0 -0.9797979797979798 0.0
-0.9797979797979798 -0.9797979797979798 0.0
-0.9595959595959596 -0.9797979797979798 0.0
-0.9393939393939394 -0.9797979797979798 0.0
-0.9191919191919192 -0.9797979797979798 0.0
-0.898989898989899 -0.9797979797979798 0.0
-0.8787878787878788 -0.9797979797979798 0.0
-0.8585858585858586 -0.9797979797979798 0.0
-0.8383838383838383 -0.9797979797979798 0.0
-0.8181818181818181 -0.9797979797979798 0.0
-0.797979797979798 -0.9797979797979798 0.0
-0.7777777777777778 -0.9797979797979798 0.0
-0.7575757575757576 -0.9797979797979798 0.0
-0.7373737373737373 -0.9797979797979798 0.0
-0.7171717171717171 -0.9797979797979798 0.0
-0.696969696969697 -0.9797979797979798 0.0
-0.6767676767676767 -0.9797979797979798 0.0
-0.6565656565656566 -0.9797979797979798 0.0
-0.6363636363636364 -0.9797979797979798 0.0
-0.6161616161616161 -0.9797979797979798 0.0
-0.5959595959595959 -0.9797979797979798 0.0
-0.5757575757575757 -0.9797979797979798 0.0
-0.5555555555555556 -0.9797979797979798 0.0
-0.5353535353535352 -0.9797979797979798 0.0
-0.5151515151515151 -0.9797979797979798 0.0
-0.4949494949494949 -0.9797979797979798 0.0
-0.4747474747474747 -0.9797979797979798 0.0
-0.4545454545454545 -0.9797979797979798 0.0
-0.43434343434343425 -0.9797979797979798 0.0
-0.41414141414141414 -0.9797979797979798 0.0
-0.3939393939393939 -0.9797979797979798 0.0
-0.3737373737373737 -0.9797979797979798 0.0
-0.3535353535353535 -0.9797979797979798 0.0
-0.33333333333333326 -0.9797979797979798 0.0
-0.31313131313131304 -0.9797979797979798 0.0
-0.2929292929292928 -0.9797979797979798 0.0
-0.2727272727272727 -0.9797979797979798 0.0
-0.2525252525252525 -0.9797979797979798 0.0
-0.23232323232323226 -0.9797979797979798 0.0
-0.21212121212121204 -0.9797979797979798 0.0
-0.19191919191919182 -0.9797979797979798 0.0
-0.1717171717171716 -0.9797979797979798 0.0
-0.1515151515151515 -0.9797979797979798 0.0
-0.13131313131313127 -0.9797979797979798 0.0
-0.11111111111111105 -0.9797979797979798 0.0
-0.09090909090909083 -0.9797979797979798 0.0
-0.07070707070707061 -0.9797979797979798 0.0
-0.050505050505050386 -0.9797979797979798 0.0
-0.030303030303030276 -0.9797979797979798 0.0
-0.010101010101010055 -0.9797979797979798 0.0
0.010101010101010166 -0.9797979797979798 0.0
0.030303030303030498 -0.9797979797979798 0.0
0.05050505050505061 -0.9797979797979798 0.0
0.07070707070707072 -0.9797979797979798 0.0
0.09090909090909105 -0.9797979797979798 0.0
0.11111111111111116 -0.9797979797979798 0.0
0.1313131313131315 -0.9797979797979798 0.0
0.1515151515151516 -0.9797979797979798 0.0
0.1717171717171717 -0.9797979797979798 0.0
0.19191919191919204 -0.9797979797979798 0.0
0.21212121212121215 -0.9797979797979798 0.0
0.2323232323232325 -0.9797979797979798 0.0
0.2525252525252526 -0.9797979797979798 0.0
0.27272727272727293 -0.9797979797979798 0.0
0.29292929292929304 -0.9797979797979798 0.0
0.31313131313131315 -0.9797979797979798 0.0
0.3333333333333335 -0.9797979797979798 0.0
0.3535353535353536 -0.9797979797979798 0.0
0.3737373737373739 -0.9797979797979798 0.0
0.39393939393939403 -0.9797979797979798 0.0
0.41414141414141437 -0.9797979797979798 0.0
0.4343434343434345 -0.9797979797979798 0.0
0.4545454545454546 -0.9797979797979798 0.0
0.4747474747474749 -0.9797979797979798 0.0
0.49494949494949503 -0.9797979797979798 0.0
0.5151515151515154 -0.9797979797979798 0.0
0.5353535353535355 -0.9797979797979798 0.0
0.5555555555555556 -0.9797979797979798 0.0
0.5757575757575759 -0.9797979797979798 0.0
0.595959595959596 -0.9797979797979798 0.0
0.6161616161616164 -0.9797979797979798 0.0
0.6363636363636365 -0.9797979797979798 0.0
0.6565656565656568 -0.9797979797979798 0.0
0.6767676767676769 -0.9797979797979798 0.0
0.696969696969697 -0.9797979797979798 0.0
0.7171717171717173 -0.9797979797979798 0.0
0.7373737373737375 -0.9797979797979798 0.0
0.7575757575757578 -0.9797979797979798 0.0
0.7777777777777779 -0.9797979797979798 0.0
0.7979797979797982 -0.9797979797979798 0.0
0.8181818181818183 -0.9797979797979798 0.0
0.8383838383838385 -0.9797979797979798 0.0
0.8585858585858588 -0.9797979797979798 0.0
0.8787878787878789 -0.9797979797979798 0.0
0.8989898989898992 -0.9797979797979798 0.0
0.9191919191919193 -0.9797979797979798 0.0
0.9393939393939394 -0.9797979797979798 0.0
0.9595959595959598 -0.9797979797979798 0.0
0.9797979797979799 -0.9797979797979798 0.0
1.0 -0.9797979797979798 0.0
-1.0 -0.9595959595959596 0.0
-0.9797979797979798 -0.9595959595959596 0.0
-0.9595959595959596 -0.9595959595959596 0.0
-0.9393939393939394 -0.9595959595959596 0.0
-0.9191919191919192 -0.9595959595959596 0.0
-0.898989898989899 -0.9595959595959596 0.0
-0.8787878787878788 -0.9595959595959596 0.0
-0.8585858585858586 -0.9595959595959596 0.0
-0.8383838383838383 -0.9595959595959596 0.0
-0.8181818181818181 -0.9595959595959596 0.0
-0.797979797979798 -0.9595959595959596 0.0
-0.7777777777777778 -0.9595959595959596 0.0
-0.7575757575757576 -0.9595959595959596 0.0
-0.7373737373737373 -0.9595959595959596 0.0
-0.7171717171717171 -0.9595959595959596 0.0
-0.696969696969697 -0.9595959595959596 0.0
-0.6767676767676767 -0.9595959595959596 0.0
-0.6565656565656566 -0.9595959595959596 0.0
-0.6363636363636364 -0.9595959595959596 0.0
-0.6161616161616161 -0.9595959595959596 0.0
-0.5959595959595959 -0.9595959595959596 0.0
-0.5757575757575757 -0.9595959595959596 0.0
-0.5555555555555556 -0.9595959595959596 0.0
-0.5353535353535352 -0.9595959595959596 0.0
-0.5151515151515151 -0.9595959595959596 0.0
-0.4949494949494949 -0.9595959595959596 0.0
-0.4747474747474747 -0.9595959595959596 0.0
-0.4545454545454545 -0.9595959595959596 0.0
-0.43434343434343425 -0.9595959595959596 0.0
-0.41414141414141414 -0.9595959595959596 0.0
-0.3939393939393939 -0.9595959595959596 0.0
-0.3737373737373737 -0.9595959595959596 0.0
-0.3535353535353535 -0.9595959595959596 0.0
-0.33333333333333326 -0.9595959595959596 0.0
-0.31313131313131304 -0.9595959595959596 0.0
-0.2929292929292928 -0.9595959595959596 0.0
-0.2727272727272727 -0.9595959595959596 0.0
-0.2525252525252525 -0.9595959595959596 0.0
-0.23232323232323226 -0.9595959595959596 0.0
-0.21212121212121204 -0.9595959595959596 0.0
-0.19191919191919182 -0.9595959595959596 0.0
-0.1717171717171716 -0.9595959595959596 0.0
-0.1515151515151515 -0.9595959595959596 0.0
-0.13131313131313127 -0.9595959595959596 0.0
-0.11111111111111105 -0.9595959595959596 0.0
-0.09090909090909083 -0.9595959595959596 0.0
-0.07070707070707061 -0.9595959595959596 0.0
-0.050505050505050386 -0.9595959595959596 0.0
-0.030303030303030276 -0.9595959595959596 0.0
-0.010101010101010055 -0.9595959595959596 0.0
0.010101010101010166 -0.9595959595959596 0.0
0.030303030303030498 -0.9595959595959596 0.0
0.05050505050505061 -0.9595959595959596 0.0
0.07070707070707072 -0.9595959595959596 0.0
0.09090909090909105 -0.9595959595959596 0.0
0.11111111111111116 -0.9595959595959596 0.0
0.1313131313131315 -0.9595959595959596 0.0
0.1515151515151516 -0.9595959595959596 0.0
0.1717171717171717 -0.9595959595959596 0.0
0.19191919191919204 -0.9595959595959596 0.0
0.21212121212121215 -0.9595959595959596 0.0
[...]
POINT_DATA 10000
SCALARS u float 1
LOOKUP_TABLE default
0.00013779103755950928
0.00013044476509094238
0.0001227855682373047
0.0001150667667388916
0.00010721385478973389
9.934604167938232e-05
9.149312973022461e-05
8.383393287658691e-05
7.639825344085693e-05
6.936490535736084e-05
6.26295804977417e-05
5.644559860229492e-05
5.0768256187438965e-05
4.5686960220336914e-05
4.126131534576416e-05
3.7342309951782227e-05
3.400444984436035e-05
3.121793270111084e-05
2.8878450393676758e-05
2.6866793632507324e-05
2.5078654289245605e-05
2.35140323638916e-05
2.205371856689453e-05
2.059340476989746e-05
1.9088387489318848e-05
1.753866672515869e-05
1.6048550605773926e-05
1.4603137969970703e-05
1.329183578491211e-05
1.2218952178955078e-05
1.1473894119262695e-05
1.1116266250610352e-05
1.1280179023742676e-05
1.1965632438659668e-05
1.3172626495361328e-05
1.4886260032653809e-05
1.697242259979248e-05
1.946091651916504e-05
2.2113323211669922e-05
2.4840235710144043e-05
2.759695053100586e-05
3.02046537399292e-05
3.261864185333252e-05
3.460049629211426e-05
3.6269426345825195e-05
3.746151924133301e-05
3.813207149505615e-05
3.832578659057617e-05
3.814697265625e-05
3.746151924133301e-05
3.6597251892089844e-05
3.568828105926514e-05
3.507733345031738e-05
3.504753112792969e-05
3.598630428314209e-05
3.808736801147461e-05
4.176795482635498e-05
4.70280647277832e-05
5.3942203521728516e-05
6.22868537902832e-05
7.158517837524414e-05
8.130073547363281e-05
9.049475193023682e-05
9.836256504058838e-05
0.00010403990745544434
0.00010702013969421387
0.00010707974433898926
0.00010451674461364746
0.00010001659393310547
9.432435035705566e-05
8.821487426757812e-05
8.209049701690674e-05
7.617473602294922e-05
7.018446922302246e-05
6.397068500518799e-05
5.7190656661987305e-05
4.997849464416504e-05
4.2185187339782715e-05
3.407895565032959e-05
2.6017427444458008e-05
1.8343329429626465e-05
1.1682510375976562e-05
6.631016731262207e-06
3.56137752532959e-06
2.6971101760864258e-06
4.082918167114258e-06
7.271766662597656e-06
1.1563301086425781e-05
1.601874828338623e-05
1.9371509552001953e-05
2.0429491996765137e-05
1.8149614334106445e-05
1.1652708053588867e-05
5.066394805908203e-07
-1.5214085578918457e-05
-3.49581241607666e-05
-5.8025121688842773e-05
-8.304417133331299e-05
-0.00010901689529418945
-0.00013446807861328125
0.00013984739780426025
0.00013181567192077637
0.00012362003326416016
0.00011527538299560547
0.00010691583156585693
9.851157665252686e-05
9.02712345123291e-05
8.219480514526367e-05
7.444620132446289e-05
6.708502769470215e-05
6.012618541717529e-05
5.3688883781433105e-05
4.7788023948669434e-05
4.260241985321045e-05
3.7923455238342285e-05
3.390014171600342e-05
3.0428171157836914e-05
2.7552247047424316e-05
2.5063753128051758e-05
2.2977590560913086e-05
2.123415470123291e-05
1.971423625946045e-05
1.8268823623657227e-05
1.703202724456787e-05
1.576542854309082e-05
1.4573335647583008e-05
1.3440847396850586e-05
1.2353062629699707e-05
1.1518597602844238e-05
1.0818243026733398e-05
1.0445713996887207e-05
1.0386109352111816e-05
1.068413257598877e-05
1.1309981346130371e-05
1.2323260307312012e-05
1.3649463653564453e-05
1.5094876289367676e-05
1.677870750427246e-05
1.8477439880371094e-05
2.0071864128112793e-05
2.1591782569885254e-05
2.2932887077331543e-05
2.4110078811645508e-05
2.4944543838500977e-05
2.5570392608642578e-05
2.5913119316101074e-05
2.5972723960876465e-05
2.5779008865356445e-05
2.5331974029541016e-05
2.4706125259399414e-05
2.4080276489257812e-05
2.3499131202697754e-05
2.326071262359619e-05
2.3543834686279297e-05
2.4706125259399414e-05
2.689659595489502e-05
3.059208393096924e-05
3.579258918762207e-05
4.264712333679199e-05
5.099177360534668e-05
6.054341793060303e-05
7.086992263793945e-05
8.118152618408203e-05
9.06139612197876e-05
9.825825691223145e-05
0.0001033395528793335
0.00010569393634796143
0.00010512769222259521
0.00010228157043457031
9.79006290435791e-05
9.268522262573242e-05
8.721649646759033e-05
8.17328691482544e-05
7.617473602294922e-05
7.024407386779785e-05
6.379187107086182e-05
5.657970905303955e-05
4.884600639343262e-05
4.069507122039795e-05
3.223121166229248e-05
2.4259090423583984e-05
1.697242259979248e-05
1.0982155799865723e-05
6.720423698425293e-06
4.51505184173584e-06
4.4852495193481445e-06
6.362795829772949e-06
9.551644325256348e-06
1.33514404296875e-05
1.6644597053527832e-05
1.8268823623657227e-05
1.7240643501281738e-05
1.2606382369995117e-05
3.844499588012695e-06
-9.34302806854248e-06
-2.6628375053405762e-05
-4.7400593757629395e-05
-7.067620754241943e-05
-9.53376293182373e-05
-0.00012023746967315674
0.0001398324966430664
0.00013107061386108398
0.00012223422527313232
0.00011336803436279297
0.00010454654693603516
9.576976299285889e-05
8.71121883392334e-05
7.87973403930664e-05
7.082521915435791e-05
6.32554292678833e-05
5.6177377700805664e-05
4.960596561431885e-05
4.369020462036133e-05
3.8430094718933105e-05
3.3736228942871094e-05
2.9742717742919922e-05
2.6285648345947266e-05
2.3379921913146973e-05
2.0995736122131348e-05
1.895427703857422e-05
1.7344951629638672e-05
1.589953899383545e-05
1.4781951904296875e-05
1.3709068298339844e-05
1.2800097465515137e-05
1.195073127746582e-05
1.119077205657959e-05
1.0699033737182617e-05
1.0311603546142578e-05
1.0117888450622559e-05
1.0162591934204102e-05
1.0460615158081055e-05
1.099705696105957e-05
1.17570161819458e-05
1.2725591659545898e-05
1.3783574104309082e-05
1.4901161193847656e-05
1.5914440155029297e-05
1.6823410987854004e-05
1.755356788635254e-05
1.800060272216797e-05
1.8268823623657227e-05
1.8268823623657227e-05
1.8090009689331055e-05
1.7702579498291016e-05
1.7195940017700195e-05
1.6570091247558594e-05
1.5929341316223145e-05
1.5228986740112305e-05
1.461803913116455e-05
1.4066696166992188e-05
1.3738870620727539e-05
1.3828277587890625e-05
1.4409422874450684e-05
1.5735626220703125e-05
1.8090009689331055e-05
2.1666288375854492e-05
2.6673078536987305e-05
3.3229589462280273e-05
4.13060188293457e-05
5.081295967102051e-05
6.124377250671387e-05
7.210671901702881e-05
8.262693881988525e-05
9.185075759887695e-05
9.894371032714844e-05
0.0001033395528793335
0.0001048743724822998
0.00010381639003753662
0.00010088086128234863
9.673833847045898e-05
9.213387966156006e-05
8.726119995117188e-05
8.212029933929443e-05
7.66366720199585e-05
7.042288780212402e-05
6.346404552459717e-05
5.574524402618408e-05
4.744529724121094e-05
3.886222839355469e-05
3.0443072319030762e-05
2.256035804748535e-05
1.5810132026672363e-05
1.0520219802856445e-05
7.18235969543457e-06
5.8710575103759766e-06
6.407499313354492e-06
8.553266525268555e-06
1.150369644165039e-05
1.4409422874450684e-05
1.6242265701293945e-05
1.6003847122192383e-05
1.2695789337158203e-05
5.766749382019043e-06
-5.260109901428223e-06
-2.0205974578857422e-05
-3.8817524909973145e-05
-6.0170888900756836e-05
-8.341670036315918e-05
-0.00010737776756286621
0.00013768672943115234
0.00012825429439544678
0.0001188516616821289
0.00010940432548522949
0.00010021030902862549
9.107589721679688e-05
8.220970630645752e-05
7.374584674835205e-05
6.559491157531738e-05
5.8010220527648926e-05
5.0887465476989746e-05
4.439055919647217e-05
3.859400749206543e-05
3.337860107421875e-05
2.880394458770752e-05
2.4899840354919434e-05
2.156198024749756e-05
1.8864870071411133e-05
1.658499240875244e-05
1.4781951904296875e-05
1.33514404296875e-05
1.220405101776123e-05
1.1324882507324219e-05
1.0594725608825684e-05
1.0147690773010254e-05
9.804964065551758e-06
9.59634780883789e-06
9.641051292419434e-06
9.804964065551758e-06
1.023709774017334e-05
1.080334186553955e-05
1.1563301086425781e-05
1.2516975402832031e-05
1.354515552520752e-05
1.4573335647583008e-05
1.55717134475708e-05
1.640617847442627e-05
1.7017126083374023e-05
1.7330050468444824e-05
1.7374753952026367e-05
1.703202724456787e-05
1.6376376152038574e-05
1.5422701835632324e-05
1.4275312423706055e-05
1.2978911399841309e-05
1.163780689239502e-05
1.0341405868530273e-05
9.149312973022461e-06
8.195638656616211e-06
7.420778274536133e-06
6.9588422775268555e-06
6.854534149169922e-06
7.152557373046875e-06
8.016824722290039e-06
9.641051292419434e-06
1.2040138244628906e-05
1.5527009963989258e-05
2.0235776901245117e-05
2.6270747184753418e-05
3.387033939361572e-05
4.2811036109924316e-05
5.295872688293457e-05
6.392598152160645e-05
7.49826431274414e-05
8.532404899597168e-05
9.399652481079102e-05
0.00010032951831817627
0.00010387599468231201
0.00010468065738677979
0.0001033097505569458
0.0001004338264465332
9.679794311523438e-05
9.256601333618164e-05
8.811056613922119e-05
8.308887481689453e-05
7.730722427368164e-05
7.05420970916748e-05
6.285309791564941e-05
5.453824996948242e-05
4.570186138153076e-05
3.68952751159668e-05
2.849102020263672e-05
2.1025538444519043e-05
1.4901161193847656e-05
1.0535120964050293e-05
8.046627044677734e-06
7.420778274536133e-06
8.359551429748535e-06
1.0460615158081055e-05
1.2740492820739746e-05
1.4424324035644531e-05
1.4603137969970703e-05
1.2263655662536621e-05
6.690621376037598e-06
-2.473592758178711e-06
-1.5422701835632324e-05
-3.191828727722168e-05
-5.148351192474365e-05
-7.316470146179199e-05
-9.606778621673584e-05
0.00013341009616851807
0.00012342631816864014
0.00011344254016876221
0.0001035928726196289
9.399652481079102e-05
8.463859558105469e-05
7.56680965423584e-05
6.7099928855896e-05
5.899369716644287e-05
5.1394104957580566e-05
4.445016384124756e-05
3.814697265625e-05
3.2454729080200195e-05
2.753734588623047e-05
2.321600914001465e-05
1.9535422325134277e-05
1.6510486602783203e-05
1.4021992683410645e-05
1.2069940567016602e-05
1.055002212524414e-05
9.417533874511719e-06
8.687376976013184e-06
8.210539817810059e-06
8.046627044677734e-06
7.972121238708496e-06
8.27014446258545e-06
8.717179298400879e-06
9.402632713317871e-06
1.0207295417785645e-05
1.1324882507324219e-05
1.2531876564025879e-05
1.3932585716247559e-05
1.5303492546081543e-05
1.6704201698303223e-05
1.8030405044555664e-05
1.9103288650512695e-05
1.9878149032592773e-05
2.0295381546020508e-05
2.0295381546020508e-05
1.977384090423584e-05
1.8849968910217285e-05
1.741945743560791e-05
1.5676021575927734e-05
1.3723969459533691e-05
1.1593103408813477e-05
9.506940841674805e-06
7.554888725280762e-06
5.8710575103759766e-06
4.4405460357666016e-06
3.516674041748047e-06
3.0249357223510742e-06
3.0100345611572266e-06
3.546476364135742e-06
4.678964614868164e-06
6.496906280517578e-06
9.045004844665527e-06
1.2472271919250488e-05
1.6897916793823242e-05
2.2426247596740723e-05
2.92360782623291e-05
3.7357211112976074e-05
4.680454730987549e-05
5.7250261306762695e-05
6.830692291259766e-05
7.921457290649414e-05
8.906424045562744e-05
9.688735008239746e-05
0.00010225176811218262
0.0001049339771270752
0.00010520219802856445
0.0001036524772644043
0.00010104477405548096
9.781122207641602e-05
9.402632713317871e-05
8.955597877502441e-05
8.417665958404541e-05
7.778406143188477e-05
7.027387619018555e-05
6.182491779327393e-05
5.2869319915771484e-05
4.367530345916748e-05
3.476440906524658e-05
2.664327621459961e-05
1.9758939743041992e-05
1.4349818229675293e-05
1.0818243026733398e-05
9.08970832824707e-06
9.015202522277832e-06
1.0117888450622559e-05
1.1712312698364258e-05
1.3113021850585938e-05
1.341104507446289e-05
1.1622905731201172e-05
7.152557373046875e-06
-6.556510925292969e-07
-1.1935830116271973e-05
-2.6628375053405762e-05
-4.4405460357666016e-05
-6.45667314529419e-05
-8.623301982879639e-05
0.0001271367073059082
0.00011657178401947021
0.00010617077350616455
9.59932804107666e-05
8.609890937805176e-05
7.662177085876465e-05
6.757676601409912e-05
5.906820297241211e-05
5.1081180572509766e-05
4.374980926513672e-05
3.707408905029297e-05
3.103911876678467e-05
2.568960189819336e-05
2.104043960571289e-05
1.7136335372924805e-05
1.3887882232666016e-05
1.1235475540161133e-05
9.149312973022461e-06
7.614493370056152e-06
6.586313247680664e-06
5.900859832763672e-06
5.587935447692871e-06
5.632638931274414e-06
5.9604644775390625e-06
6.631016731262207e-06
7.569789886474609e-06
8.717179298400879e-06
1.0102987289428711e-05
1.17570161819458e-05
1.3574957847595215e-05
1.5556812286376953e-05
1.7628073692321777e-05
1.963973045349121e-05
2.1532177925109863e-05
2.321600914001465e-05
2.4586915969848633e-05
2.5480985641479492e-05
2.5853514671325684e-05
2.561509609222412e-05
2.4825334548950195e-05
2.339482307434082e-05
2.148747444152832e-05
1.9103288650512695e-05
1.6421079635620117e-05
1.3634562492370605e-05
1.0877847671508789e-05
8.255243301391602e-06
6.0051679611206055e-06
4.231929779052734e-06
2.995133399963379e-06
2.428889274597168e-06
2.428889274597168e-06
3.1888484954833984e-06
4.6193599700927734e-06
6.616115570068359e-06
9.34302806854248e-06
1.2770295143127441e-05
1.691281795501709e-05
2.1919608116149902e-05
2.785027027130127e-05
3.489851951599121e-05
4.3258070945739746e-05
5.272030830383301e-05
6.321072578430176e-05
7.399916648864746e-05
8.440017700195312e-05
9.340047836303711e-05
0.00010028481483459473
0.00010463595390319824
0.00010657310485839844
0.0001064985990524292
0.00010505318641662598
0.0001027137041091919
9.97781753540039e-05
9.605288505554199e-05
9.125471115112305e-05
8.52048397064209e-05
7.790327072143555e-05
6.943941116333008e-05
6.0245394706726074e-05
5.078315734863281e-05
4.139542579650879e-05
3.266334533691406e-05
2.4944543838500977e-05
1.8730759620666504e-05
1.4156103134155273e-05
1.1444091796875e-05
1.029670238494873e-05
1.0520219802856445e-05
1.138448715209961e-05
1.2367963790893555e-05
1.2502074241638184e-05
1.1026859283447266e-05
7.197260856628418e-06
5.066394805908203e-07
-9.402632713317871e-06
-2.2530555725097656e-05
-3.878772258758545e-05
-5.745887756347656e-05
-7.79181718826294e-05
0.00011894106864929199
0.0001077800989151001
9.702146053314209e-05
8.659064769744873e-05
7.66366720199585e-05
6.715953350067139e-05
5.81890344619751e-05
4.988908767700195e-05
4.220008850097656e-05
3.5196542739868164e-05
2.89231538772583e-05
2.3290514945983887e-05
1.8462538719177246e-05
1.4379620552062988e-05
1.0922551155090332e-05
8.210539817810059e-06
6.079673767089844e-06
4.51505184173584e-06
3.471970558166504e-06
2.995133399963379e-06
2.8759241104125977e-06
3.1739473342895508e-06
3.874301910400391e-06
4.872679710388184e-06
6.22868537902832e-06
7.897615432739258e-06
9.894371032714844e-06
1.214444637298584e-05
1.4588236808776855e-05
1.728534698486328e-05
2.0101666450500488e-05
2.2843480110168457e-05
2.561509609222412e-05
2.8133392333984375e-05
3.0279159545898438e-05
3.202259540557861e-05
3.3095479011535645e-05
3.3602118492126465e-05
3.333389759063721e-05
3.235042095184326e-05
3.0666589736938477e-05
2.8401613235473633e-05
2.5570392608642578e-05
2.2411346435546875e-05
1.9043684005737305e-05
1.564621925354004e-05
1.2502074241638184e-05
9.73045825958252e-06
7.465481758117676e-06
5.885958671569824e-06
5.0961971282958984e-06
5.170702934265137e-06
6.020069122314453e-06
7.674098014831543e-06
9.968876838684082e-06
1.2934207916259766e-05
1.6391277313232422e-05
2.041459083557129e-05
2.4870038032531738e-05
2.993643283843994e-05
3.585219383239746e-05
4.2811036109924316e-05
5.0887465476989746e-05
6.012618541717529e-05
7.027387619018555e-05
8.054077625274658e-05
9.015202522277832e-05
9.815394878387451e-05
0.00010401010513305664
0.0001074373722076416
0.00010880827903747559
0.00010862946510314941
0.00010736286640167236
0.00010532140731811523
0.0001024007797241211
9.830296039581299e-05
9.28044319152832e-05
8.575618267059326e-05
7.739663124084473e-05
6.80387020111084e-05
5.821883678436279e-05
4.83095645904541e-05
3.898143768310547e-05
3.057718276977539e-05
2.345442771911621e-05
1.8030405044555664e-05
1.4290213584899902e-05
1.2218952178955078e-05
1.1473894119262695e-05
1.1682510375976562e-05
1.2055039405822754e-05
1.1980533599853516e-05
1.0579824447631836e-05
7.227063179016113e-06
1.3262033462524414e-06
-7.569789886474609e-06
-1.946091651916504e-05
-3.428757190704346e-05
-5.1647424697875977e-05
-7.0914626121521e-05
0.00010870397090911865
9.723007678985596e-05
8.623301982879639e-05
7.575750350952148e-05
6.58184289932251e-05
5.650520324707031e-05
4.7847628593444824e-05
3.9830803871154785e-05
3.263354301452637e-05
2.6106834411621094e-05
2.034008502960205e-05
1.5467405319213867e-05
1.1175870895385742e-05
7.703900337219238e-06
4.976987838745117e-06
2.8312206268310547e-06
1.341104507446289e-06
4.3213367462158203e-07
1.4901161193847656e-08
1.341104507446289e-07
7.152557373046875e-07
1.7434358596801758e-06
3.069639205932617e-06
4.947185516357422e-06
7.078051567077637e-06
9.611248970031738e-06
1.2472271919250488e-05
1.558661460876465e-05
1.8998980522155762e-05
2.2649765014648438e-05
2.6285648345947266e-05
2.9832124710083008e-05
3.331899642944336e-05
3.644824028015137e-05
3.917515277862549e-05
4.132091999053955e-05
4.270672798156738e-05
4.337728023529053e-05
4.322826862335205e-05
4.22745943069458e-05
4.042685031890869e-05
3.790855407714844e-05
3.485381603240967e-05
3.126263618469238e-05
2.7477741241455078e-05
2.370774745941162e-05
2.002716064453125e-05
1.671910285949707e-05
1.4066696166992188e-05
1.2069940567016602e-05
1.1116266250610352e-05
1.1026859283447266e-05
1.1920928955078125e-05
1.3694167137145996e-05
1.633167266845703e-05
1.9505620002746582e-05
2.321600914001465e-05
2.714991569519043e-05
3.1247735023498535e-05
3.55839729309082e-05
4.030764102935791e-05
4.5627355575561523e-05
5.200505256652832e-05
5.964934825897217e-05
6.844103336334229e-05
7.800757884979248e-05
8.760392665863037e-05
9.623169898986816e-05
0.00010313093662261963
0.00010798871517181396
0.00011079013347625732
0.00011181831359863281
0.00011169910430908203
0.00011073052883148193
0.00010859966278076172
0.00010535120964050293
0.0001004338264465332
9.37730073928833e-05
8.557736873626709e-05
7.611513137817383e-05
6.596744060516357e-05
5.564093589782715e-05
4.5672059059143066e-05
3.647804260253906e-05
2.86102294921875e-05
2.218782901763916e-05
1.7568469047546387e-05
1.455843448638916e-05
1.2964010238647461e-05
1.2442469596862793e-05
1.2308359146118164e-05
1.1876225471496582e-05
1.0460615158081055e-05
7.3015689849853516e-06
1.9222497940063477e-06
-6.094574928283691e-06
-1.704692840576172e-05
-3.0741095542907715e-05
-4.690885543823242e-05
-6.510317325592041e-05
9.673833847045898e-05
8.514523506164551e-05
7.4043869972229e-05
6.370246410369873e-05
5.4016709327697754e-05
4.501640796661377e-05
3.6835670471191406e-05
2.944469451904297e-05
2.2783875465393066e-05
1.703202724456787e-05
1.1965632438659668e-05
7.748603820800781e-06
4.32133674621582e-06
1.5795230865478516e-06
-4.172325134277344e-07
-1.7881393432617188e-06
-2.562999725341797e-06
-2.7567148208618164e-06
-2.384185791015625e-06
-1.519918441772461e-06
-2.2351741790771484e-07
1.4901161193847656e-06
3.7550926208496094e-06
6.3925981521606445e-06
9.432435035705566e-06
1.290440559387207e-05
1.6689300537109375e-05
2.078711986541748e-05
2.5093555450439453e-05
2.9608607292175293e-05
3.415346145629883e-05
3.8504600524902344e-05
4.267692565917969e-05
4.64022159576416e-05
4.963576793670654e-05
5.219876766204834e-05
5.395710468292236e-05
5.4836273193359375e-05
5.4836273193359375e-05
5.389750003814697e-05
5.21242618560791e-05
4.954636096954346e-05
4.628300666809082e-05
4.260241985321045e-05
3.8564205169677734e-05
3.4436583518981934e-05
3.0413269996643066e-05
2.6732683181762695e-05
2.364814281463623e-05
2.130866050720215e-05
1.9997358322143555e-05
1.9684433937072754e-05
2.0489096641540527e-05
2.238154411315918e-05
2.5212764739990234e-05
2.872943878173828e-05
3.269314765930176e-05
3.673136234283447e-05
4.07099723815918e-05
4.450976848602295e-05
4.813075065612793e-05
5.193054676055908e-05
5.6371092796325684e-05
6.194412708282471e-05
6.89476728439331e-05
7.714331150054932e-05
8.606910705566406e-05
9.475648403167725e-05
0.0001024007797241211
0.00010833144187927246
0.00011235475540161133
0.00011464953422546387
0.00011573731899261475
0.0001157224178314209
0.00011460483074188232
0.00011216104030609131
0.00010803341865539551
0.00010192394256591797
9.396672248840332e-05
8.450448513031006e-05
7.41034746170044e-05
6.332993507385254e-05
5.272030830383301e-05
4.2811036109924316e-05
3.4049153327941895e-05
2.6792287826538086e-05
2.1144747734069824e-05
1.7270445823669434e-05
1.4916062355041504e-05