# vtk DataFile Version 3.0
2D PINN Solution
ASCII
DATASET STRUCTURED_GRID
DIMENSIONS 100 100 1
POINTS 10000 float
-1.0 -1.0 0.0
-0.9797979797979798 -1.0 0.0
-0.9595959595959596 -1.0 0.0
-0.9393939393939394 -1.0 0.0
-0.9191919191919192 -1.0 0.0
-0.898989898989899 -1.0 0.0
-0.8787878787878788 -1.0 0.0
-0.8585858585858586 -1.0 0.0
-0.8383838383838383 -1.0 0.0
-0.8181818181818181 -1.0 0.0
-0.797979797979798 -1.0 0.0
-0.7777777777777778 -1.0 0.0
-0.7575757575757576 -1.0 0.0
-0.7373737373737373 -1.0 0.0
-0.7171717171717171 -1.0 0.0
-0.696969696969697 -1.0 0.0
-0.6767676767676767 -1.0 0.0
-0.6565656565656566 -1.0 0.0
-0.6363636363636364 -1.0 0.0
-0.6161616161616161 -1.0 0.0
-0.5959595959595959 -1.0 0.0
-0.5757575757575757 -1.0 0.0
-0.5555555555555556 -1.0 0.0
-0.5353535353535352 -1.0 0.0
-0.5151515151515151 -1.0 0.0
-0.4949494949494949 -1.0 0.0
-0.4747474747474747 -1.0 0.0
-0.4545454545454545 -1.0 0.0
-0.43434343434343425 -1.0 0.0
-0.41414141414141414 -1.0 0.0
-0.3939393939393939 -1.0 0.0
-0.3737373737373737 -1.0 0.0
-0.3535353535353535 -1.0 0.0
-0.33333333333333326 -1.0 0.0
-0.31313131313131304 -1.0 0.0
-0.2929292929292928 -1.0 0.0
-0.2727272727272727 -1.0 0.0
-0.2525252525252525 -1.0 0.0
-0.23232323232323226 -1.0 0.0
-0.21212121212121204 -1.0 0.0
-0.19191919191919182 -1.0 0.0
-0.1717171717171716 -1.0 0.0
-0.1515151515151515 -1.0 0.0
-0.13131313131313127 -1.0 0.0
-0.11111111111111105 -1.0 0.0
-0.09090909090909083 -1.0 0.0
-0.07070707070707061 -1.0 0.0
-0.050505050505050386 -1.0 0.0
-0.030303030303030276 -1.0 0.0
-0.010101010101010055 -1.0 0.0
0.010101010101010166 -1.0 0.0
0.030303030303030498 -1.0 0.0
0.05050505050505061 -1.0 0.0
0.07070707070707072 -1.0 0.0
0.09090909090909105 -1.0 0.0
0.11111111111111116 -1.0 0.0
0.1313131313131315 -1.0 0.0
0.1515151515151516 -1.0 0.0
0.1717171717171717 -1.0 0.0
0.19191919191919204 -1.0 0.0
0.21212121212121215 -1.0 0.0
0.2323232323232325 -1.0 0.0
0.2525252525252526 -1.0 0.0
0.27272727272727293 -1.0 0.0
0.29292929292929304 -1.0 0.0
0.31313131313131315 -1.0 0.0
0.3333333333333335 -1.0 0.0
0.3535353535353536 -1.0 0.0
0.3737373737373739 -1.0 0.0
0.39393939393939403 -1.0 0.0
0.41414141414141437 -1.0 0.0
0.4343434343434345 -1.0 0.0
0.4545454545454546 -1.0 0.0
0.4747474747474749 -1.0 0.0
0.49494949494949503 -1.0 0.0
0.5151515151515154 -1.0 0.0
0.5353535353535355 -1.0 0.0
0.5555555555555556 -1.0 0.0
0.5757575757575759 -1.0 0.0
0.595959595959596 -1.0 0.0
0.6161616161616164 -1.0 0.0
0.6363636363636365 -1.0 0.0
0.6565656565656568 -1.0 0.0
0.6767676767676769 -1.0 0.0
0.696969696969697 -1.0 0.0
0.7171717171717173 -1.0 0.0
0.7373737373737375 -1.0 0.0
0.7575757575757578 -1.0 0.0
0.7777777777777779 -1.0 0.0
0.7979797979797982 -1.0 0.0
0.8181818181818183 -1.0 0.0
0.8383838383838385 -1.0 0.0
0.8585858585858588 -1.0 0.0
0.8787878787878789 -1.0 0.0
0.8989898989898992 -1.0 0.0
0.9191919191919193 -1.0 0.0
0.9393939393939394 -1.0 0.0
0.9595959595959598 -1.0 0.0
0.9797979797979799 -1.0 0.0
1.0 -1.0 0.0
-1.0 -0.9797979797979798 0.0
-0.9797979797979798 -0.9797979797979798 0.0
-0.9595959595959596 -0.9797979797979798 0.0
-0.9393939393939394 -0.9797979797979798 0.0
-0.9191919191919192 -0.9797979797979798 0.0
-0.898989898989899 -0.9797979797979798 0.0
-0.8787878787878788 -0.9797979797979798 0.0
-0.8585858585858586 -0.9797979797979798 0.0
-0.8383838383838383 -0.9797979797979798 0.0
-0.8181818181818181 -0.9797979797979798 0.0
-0.797979797979798 -0.9797979797979798 0.0
-0.7777777777777778 -0.9797979797979798 0.0
-0.7575757575757576 -0.9797979797979798 0.0
-0.7373737373737373 -0.9797979797979798 0.0
-0.7171717171717171 -0.9797979797979798 0.0
-0.696969696969697 -0.9797979797979798 0.0
-0.6767676767676767 -0.9797979797979798 0.0
-0.6565656565656566 -0.9797979797979798 0.0
-0.6363636363636364 -0.9797979797979798 0.0
-0.6161616161616161 -0.9797979797979798 0.0
-0.5959595959595959 -0.9797979797979798 0.0
-0.5757575757575757 -0.9797979797979798 0.0
-0.5555555555555556 -0.9797979797979798 0.0
-0.5353535353535352 -0.9797979797979798 0.0
-0.5151515151515151 -0.9797979797979798 0.0
-0.4949494949494949 -0.9797979797979798 0.0
-0.4747474747474747 -0.9797979797979798 0.0
-0.4545454545454545 -0.9797979797979798 0.0
-0.43434343434343425 -0.9797979797979798 0.0
-0.41414141414141414 -0.9797979797979798 0.0
-0.3939393939393939 -0.9797979797979798 0.0
-0.3737373737373737 -0.9797979797979798 0.0
-0.3535353535353535 -0.9797979797979798 0.0
-0.33333333333333326 -0.9797979797979798 0.0
-0.31313131313131304 -0.9797979797979798 0.0
-0.2929292929292928 -0.9797979797979798 0.0
-0.2727272727272727 -0.9797979797979798 0.0
-0.2525252525252525 -0.9797979797979798 0.0
-0.23232323232323226 -0.9797979797979798 0.0
-0.21212121212121204 -0.9797979797979798 0.0
-0.19191919191919182 -0.9797979797979798 0.0
-0.1717171717171716 -0.9797979797979798 0.0
-0.1515151515151515 -0.9797979797979798 0.0
-0.13131313131313127 -0.9797979797979798 0.0
-0.11111111111111105 -0.9797979797979798 0.0
-0.09090909090909083 -0.9797979797979798 0.0
-0.07070707070707061 -0.9797979797979798 0.0
-0.050505050505050386 -0.9797979797979798 0.0
-0.030303030303030276 -0.9797979797979798 0.0
-0.010101010101010055 -0.9797979797979798 0.0
0.010101010101010166 -0.9797979797979798 0.0
0.030303030303030498 -0.9797979797979798 0.0
0.05050505050505061 -0.9797979797979798 0.0
0.07070707070707072 -0.9797979797979798 0.0
0.09090909090909105 -0.9797979797979798 0.0
0.11111111111111116 -0.9797979797979798 0.0
0.1313131313131315 -0.9797979797979798 0.0
0.1515151515151516 -0.9797979797979798 0.0
0.1717171717171717 -0.9797979797979798 0.0
0.19191919191919204 -0.9797979797979798 0.0
0.21212121212121215 -0.9797979797979798 0.0
0.2323232323232325 -0.9797979797979798 0.0
0.2525252525252526 -0.9797979797979798 0.0
0.27272727272727293 -0.9797979797979798 0.0
0.29292929292929304 -0.9797979797979798 0.0
0.31313131313131315 -0.9797979797979798 0.0
0.3333333333333335 -0.9797979797979798 0.0
0.3535353535353536 -0.9797979797979798 0.0
0.3737373737373739 -0.9797979797979798 0.0
0.39393939393939403 -0.9797979797979798 0.0
0.41414141414141437 -0.9797979797979798 0.0
0.4343434343434345 -0.9797979797979798 0.0
0.4545454545454546 -0.9797979797979798 0.0
0.4747474747474749 -0.9797979797979798 0.0
0.49494949494949503 -0.9797979797979798 0.0
0.5151515151515154 -0.9797979797979798 0.0
0.5353535353535355 -0.9797979797979798 0.0
0.5555555555555556 -0.9797979797979798 0.0
0.5757575757575759 -0.9797979797979798 0.0
0.595959595959596 -0.9797979797979798 0.0
0.6161616161616164 -0.9797979797979798 0.0
0.6363636363636365 -0.9797979797979798 0.0
0.6565656565656568 -0.9797979797979798 0.0
0.6767676767676769 -0.9797979797979798 0.0
0.696969696969697 -0.9797979797979798 0.0
0.7171717171717173 -0.9797979797979798 0.0
0.7373737373737375 -0.9797979797979798 0.0
0.7575757575757578 -0.9797979797979798 0.0
0.7777777777777779 -0.9797979797979798 0.0
0.7979797979797982 -0.9797979797979798 0.0
0.8181818181818183 -0.9797979797979798 0.0
0.8383838383838385 -0.9797979797979798 0.0
0.8585858585858588 -0.9797979797979798 0.0
0.8787878787878789 -0.9797979797979798 0.0
0.8989898989898992 -0.9797979797979798 0.0
0.9191919191919193 -0.9797979797979798 0.0
0.9393939393939394 -0.9797979797979798 0.0
0.9595959595959598 -0.9797979797979798 0.0
0.9797979797979799 -0.9797979797979798 0.0
1.0 -0.9797979797979798 0.0
-1.0 -0.9595959595959596 0.0
-0.9797979797979798 -0.9595959595959596 0.0
-0.9595959595959596 -0.9595959595959596 0.0
-0.9393939393939394 -0.9595959595959596 0.0
-0.9191919191919192 -0.9595959595959596 0.0
-0.898989898989899 -0.9595959595959596 0.0
-0.8787878787878788 -0.9595959595959596 0.0
-0.8585858585858586 -0.9595959595959596 0.0
-0.8383838383838383 -0.9595959595959596 0.0
-0.8181818181818181 -0.9595959595959596 0.0
-0.797979797979798 -0.9595959595959596 0.0
-0.7777777777777778 -0.9595959595959596 0.0
-0.7575757575757576 -0.9595959595959596 0.0
-0.7373737373737373 -0.9595959595959596 0.0
-0.7171717171717171 -0.9595959595959596 0.0
-0.696969696969697 -0.9595959595959596 0.0
-0.6767676767676767 -0.9595959595959596 0.0
-0.6565656565656566 -0.9595959595959596 0.0
-0.6363636363636364 -0.9595959595959596 0.0
-0.6161616161616161 -0.9595959595959596 0.0
-0.5959595959595959 -0.9595959595959596 0.0
-0.5757575757575757 -0.9595959595959596 0.0
-0.5555555555555556 -0.9595959595959596 0.0
-0.5353535353535352 -0.9595959595959596 0.0
-0.5151515151515151 -0.9595959595959596 0.0
-0.4949494949494949 -0.9595959595959596 0.0
-0.4747474747474747 -0.9595959595959596 0.0
-0.4545454545454545 -0.9595959595959596 0.0
-0.43434343434343425 -0.9595959595959596 0.0
-0.41414141414141414 -0.9595959595959596 0.0
-0.3939393939393939 -0.9595959595959596 0.0
-0.3737373737373737 -0.9595959595959596 0.0
-0.3535353535353535 -0.9595959595959596 0.0
-0.33333333333333326 -0.9595959595959596 0.0
-0.31313131313131304 -0.9595959595959596 0.0
-0.2929292929292928 -0.9595959595959596 0.0
-0.2727272727272727 -0.9595959595959596 0.0
-0.2525252525252525 -0.9595959595959596 0.0
-0.23232323232323226 -0.9595959595959596 0.0
-0.21212121212121204 -0.9595959595959596 0.0
-0.19191919191919182 -0.9595959595959596 0.0
-0.1717171717171716 -0.9595959595959596 0.0
-0.1515151515151515 -0.9595959595959596 0.0
-0.13131313131313127 -0.9595959595959596 0.0
-0.11111111111111105 -0.9595959595959596 0.0
-0.09090909090909083 -0.9595959595959596 0.0
-0.07070707070707061 -0.9595959595959596 0.0
-0.050505050505050386 -0.9595959595959596 0.0
-0.030303030303030276 -0.9595959595959596 0.0
-0.010101010101010055 -0.9595959595959596 0.0
0.010101010101010166 -0.9595959595959596 0.0
0.030303030303030498 -0.9595959595959596 0.0
0.05050505050505061 -0.9595959595959596 0.0
0.07070707070707072 -0.9595959595959596 0.0
0.09090909090909105 -0.9595959595959596 0.0
0.11111111111111116 -0.9595959595959596 0.0
0.1313131313131315 -0.9595959595959596 0.0
0.1515151515151516 -0.9595959595959596 0.0
0.1717171717171717 -0.9595959595959596 0.0
0.19191919191919204 -0.9595959595959596 0.0
0.21212121212121215 -0.9595959595959596 0.0
[...]
POINT_DATA 10000
SCALARS u float 1
LOOKUP_TABLE default
0.00020498037338256836
0.0001897066831588745
0.00017437338829040527
0.00015909969806671143
0.00014403462409973145
0.00012928247451782227
0.00011499226093292236
0.00010125339031219482
8.812546730041504e-05
7.574260234832764e-05
6.417930126190186e-05
5.345046520233154e-05
4.3705105781555176e-05
3.49581241607666e-05
2.720952033996582e-05
2.03549861907959e-05
1.4677643775939941e-05
9.8496675491333e-06
5.9604644775390625e-06
2.8908252716064453e-06
4.76837158203125e-07
-1.1920928955078125e-06
-2.3543834686279297e-06
-3.11434268951416e-06
-3.5762786865234375e-06
-3.844499588012695e-06
-3.9637088775634766e-06
-4.0978193283081055e-06
-4.202127456665039e-06
-4.366040229797363e-06
-4.559755325317383e-06
-4.723668098449707e-06
-4.872679710388184e-06
-4.9173831939697266e-06
-4.813075065612793e-06
-4.500150680541992e-06
-3.874301910400391e-06
-3.039836883544922e-06
-1.8328428268432617e-06
-2.8312206268310547e-07
1.6391277313232422e-06
3.948807716369629e-06
6.765127182006836e-06
1.004338264465332e-05
1.411139965057373e-05
1.8864870071411133e-05
2.460181713104248e-05
3.1322240829467773e-05
3.914535045623779e-05
4.793703556060791e-05
5.7578086853027344e-05
6.762146949768066e-05
7.764995098114014e-05
8.703768253326416e-05
9.50843095779419e-05
0.00010144710540771484
0.00010561943054199219
0.00010776519775390625
0.00010803341865539551
0.00010710954666137695
0.00010569393634796143
0.00010484457015991211
0.00010517239570617676
0.00010736286640167236
0.00011153519153594971
0.00011734664440155029
0.00012412667274475098
0.00013068318367004395
0.00013546645641326904
0.00013710558414459229
0.0001344829797744751
0.00012728571891784668
0.000116005539894104
0.00010204315185546875
8.730590343475342e-05
7.34478235244751e-05
6.183981895446777e-05
5.300343036651611e-05
4.70280647277832e-05
4.328787326812744e-05
4.1112303733825684e-05
3.954768180847168e-05
3.78340482711792e-05
3.6150217056274414e-05
3.479421138763428e-05
3.5062432289123535e-05
3.7804245948791504e-05
4.380941390991211e-05
5.27799129486084e-05
6.341934204101562e-05
7.364153861999512e-05
8.091330528259277e-05
8.276104927062988e-05
7.751584053039551e-05
6.447732448577881e-05
4.4018030166625977e-05
1.7702579498291016e-05
-1.2308359146118164e-05
-4.361569881439209e-05
-7.37905502319336e-05
0.00019562244415283203
0.00017979741096496582
0.0001640617847442627
0.00014865398406982422
0.0001335442066192627
0.00011894106864929199
0.00010491907596588135
9.149312973022461e-05
7.881224155426025e-05
6.695091724395752e-05
5.59687614440918e-05
4.585087299346924e-05
3.674626350402832e-05
2.855062484741211e-05
2.136826515197754e-05
1.5124678611755371e-05
9.79006290435791e-06
5.379319190979004e-06
1.8477439880371094e-06
-9.685754776000977e-07
-3.039836883544922e-06
-4.544854164123535e-06
-5.5730342864990234e-06
-6.198883056640625e-06
-6.5267086029052734e-06
-6.586313247680664e-06
-6.496906280517578e-06
-6.273388862609863e-06
-6.094574928283691e-06
-5.856156349182129e-06
-5.558133125305176e-06
-5.27501106262207e-06
-4.991888999938965e-06
-4.5746564865112305e-06
-4.172325134277344e-06
-3.6656856536865234e-06
-3.069639205932617e-06
-2.4139881134033203e-06
-1.6987323760986328e-06
-8.940696716308594e-07
-2.9802322387695312e-08
9.238719940185547e-07
1.952052116394043e-06
3.2782554626464844e-06
4.9620866775512695e-06
7.241964340209961e-06
1.0251998901367188e-05
1.4290213584899902e-05
1.9431114196777344e-05
2.5838613510131836e-05
3.33636999130249e-05
4.188716411590576e-05
5.097687244415283e-05
6.0245394706726074e-05
6.90072774887085e-05
7.665157318115234e-05
8.279085159301758e-05
8.691847324371338e-05
8.937716484069824e-05
9.039044380187988e-05
9.065866470336914e-05
9.094178676605225e-05
9.205937385559082e-05
9.462237358093262e-05
9.906291961669922e-05
0.00010532140731811523
0.00011275708675384521
0.00012053549289703369
0.00012730062007904053
0.00013138353824615479
0.00013156235218048096
0.00012709200382232666
0.00011807680130004883
0.00010569393634796143
9.161233901977539e-05
7.775425910949707e-05
6.560981273651123e-05
5.620718002319336e-05
4.963576793670654e-05
4.57763671875e-05
4.374980926513672e-05
4.264712333679199e-05
4.1678547859191895e-05
4.0337443351745605e-05
3.889203071594238e-05
3.816187381744385e-05
3.933906555175781e-05
4.315376281738281e-05
5.011260509490967e-05
5.951523780822754e-05
6.978213787078857e-05
7.863342761993408e-05
8.356571197509766e-05
8.247792720794678e-05
7.4043869972229e-05
5.7950615882873535e-05
3.510713577270508e-05
7.3015689849853516e-06
-2.3186206817626953e-05
-5.386769771575928e-05
0.0001837611198425293
0.0001675337553024292
0.00015169382095336914
0.00013631582260131836
0.0001214444637298584
0.00010707974433898926
9.34600830078125e-05
8.060038089752197e-05
6.856024265289307e-05
5.7369470596313477e-05
4.704296588897705e-05
3.7670135498046875e-05
2.9265880584716797e-05
2.1770596504211426e-05
1.5243887901306152e-05
9.626150131225586e-06
4.857778549194336e-06
9.387731552124023e-07
-2.130866050720215e-06
-4.589557647705078e-06
-6.3478946685791016e-06
-7.569789886474609e-06
-8.32974910736084e-06
-8.732080459594727e-06
-8.821487426757812e-06
-8.64267349243164e-06
-8.255243301391602e-06
-7.793307304382324e-06
-7.152557373046875e-06
-6.4373016357421875e-06
-5.677342414855957e-06
-4.798173904418945e-06
-3.919005393981934e-06
-2.9653310775756836e-06
-2.041459083557129e-06
-1.043081283569336e-06
-1.4901161193847656e-07
6.854534149169922e-07
1.2814998626708984e-06
1.7136335372924805e-06
1.8924474716186523e-06
1.862645149230957e-06
1.564621925354004e-06
1.2367963790893555e-06
9.238719940185547e-07
9.08970832824707e-07
1.385807991027832e-06
2.637505531311035e-06
4.976987838745117e-06
8.493661880493164e-06
1.3381242752075195e-05
1.9624829292297363e-05
2.6971101760864258e-05
3.5122036933898926e-05
4.35560941696167e-05
5.1647424697875977e-05
5.882978439331055e-05
6.470084190368652e-05
6.899237632751465e-05
7.18832015991211e-05
7.385015487670898e-05
7.544457912445068e-05
7.756054401397705e-05
8.077919483184814e-05
8.568167686462402e-05
9.235739707946777e-05
0.00010047852993011475
0.00010930001735687256
0.0001176595687866211
0.0001240372657775879
0.00012700259685516357
0.00012540817260742188
0.00011904537677764893
0.00010859966278076172
9.563565254211426e-05
8.206069469451904e-05
6.969273090362549e-05
5.964934825897217e-05
5.2616000175476074e-05
4.844367504119873e-05
4.649162292480469e-05
4.583597183227539e-05
4.5493245124816895e-05
4.477798938751221e-05
4.3526291847229004e-05
4.2304396629333496e-05
4.2125582695007324e-05
4.4092535972595215e-05
4.89354133605957e-05
5.65946102142334e-05
6.602704524993896e-05
7.53551721572876e-05
8.240342140197754e-05
8.460879325866699e-05
8.036196231842041e-05
6.86943531036377e-05
4.976987838745117e-05
2.4870038032531738e-05
-3.9637088775634766e-06
-3.4481287002563477e-05
0.0001697242259979248
0.00015342235565185547
0.0001376122236251831
0.0001224130392074585
0.00010783970355987549
9.407103061676025e-05
8.10474157333374e-05
6.885826587677002e-05
5.7503581047058105e-05
4.710257053375244e-05
3.764033317565918e-05
2.9042363166809082e-05
2.1457672119140625e-05
1.4737248420715332e-05
8.970499038696289e-06
4.0531158447265625e-06
-5.960464477539063e-08
-3.3527612686157227e-06
-5.990266799926758e-06
-7.927417755126953e-06
-9.238719940185547e-06
-1.0147690773010254e-05
-1.0564923286437988e-05
-1.0639429092407227e-05
-1.0401010513305664e-05
-9.924173355102539e-06
-9.194016456604004e-06
-8.299946784973145e-06
-7.227063179016113e-06
-5.990266799926758e-06
-4.634261131286621e-06
-3.1441450119018555e-06
-1.5497207641601562e-06
8.940696716308594e-08
1.7583370208740234e-06
3.4421682357788086e-06
4.932284355163574e-06
6.139278411865234e-06
6.973743438720703e-06
7.495284080505371e-06
7.420778274536133e-06
6.8247318267822266e-06
5.7220458984375e-06
4.112720489501953e-06
2.2649765014648438e-06
2.8312206268310547e-07
-1.5795230865478516e-06
-2.9802322387695312e-06
-3.591179847717285e-06
-3.084540367126465e-06
-1.1920928955078125e-06
2.1457672119140625e-06
7.033348083496094e-06
1.315772533416748e-05
2.0250678062438965e-05
2.7835369110107422e-05
3.5256147384643555e-05
4.1991472244262695e-05
4.7653913497924805e-05
5.21540641784668e-05
5.570054054260254e-05
5.879998207092285e-05
6.201863288879395e-05
6.604194641113281e-05
7.146596908569336e-05
7.858872413635254e-05
8.721649646759033e-05
9.697675704956055e-05
0.0001067817211151123
0.00011521577835083008
0.0001207590103149414
0.0001221299171447754
0.00011865794658660889
0.00011052191257476807
9.910762310028076e-05
8.630752563476562e-05
7.389485836029053e-05
6.352365016937256e-05
5.5983662605285645e-05
5.1409006118774414e-05
4.9367547035217285e-05
4.89652156829834e-05
4.920363426208496e-05
4.9173831939697266e-05
4.8488378524780273e-05
4.722177982330322e-05
4.610419273376465e-05
4.6446919441223145e-05
4.9307942390441895e-05
5.488097667694092e-05
6.29127025604248e-05
7.194280624389648e-05
7.995963096618652e-05
8.45789909362793e-05
8.380413055419922e-05
7.62939453125e-05
6.148219108581543e-05
4.000961780548096e-05
1.3500452041625977e-05
-1.609325408935547e-05
0.0001537799835205078
0.0001375824213027954
0.00012205541133880615
0.00010725855827331543
9.325146675109863e-05
8.012354373931885e-05
6.780028343200684e-05
5.6430697441101074e-05
4.595518112182617e-05
3.647804260253906e-05
2.7894973754882812e-05
2.022087574005127e-05
1.3530254364013672e-05
7.718801498413086e-06
2.7567148208618164e-06
-1.4156103134155273e-06
-4.723668098449707e-06
-7.37607479095459e-06
-9.387731552124023e-06
-1.080334186553955e-05
-1.1622905731201172e-05
-1.2069940567016602e-05
-1.2040138244628906e-05
-1.169741153717041e-05
-1.1086463928222656e-05
-1.0192394256591797e-05
-9.059906005859375e-06
-7.703900337219238e-06
-6.139278411865234e-06
-4.351139068603516e-06
-2.3245811462402344e-06
-1.043081283569336e-07
2.2798776626586914e-06
4.753470420837402e-06
7.3015689849853516e-06
9.745359420776367e-06
1.208484172821045e-05
1.4007091522216797e-05
1.5467405319213867e-05
1.6361474990844727e-05
1.6495585441589355e-05
1.5795230865478516e-05
1.424551010131836e-05
1.1861324310302734e-05
8.851289749145508e-06
5.304813385009766e-06
1.5348196029663086e-06
-2.2351741790771484e-06
-5.5730342864990234e-06
-8.07642936706543e-06
-9.462237358093262e-06
-9.357929229736328e-06
-7.614493370056152e-06
-4.231929779052734e-06
6.556510925292969e-07
6.67572021484375e-06
1.3336539268493652e-05
2.0042061805725098e-05
2.63899564743042e-05
3.197789192199707e-05
3.6910176277160645e-05
4.127621650695801e-05
4.570186138153076e-05
5.0634145736694336e-05
5.6684017181396484e-05
6.41942024230957e-05
7.340312004089355e-05
8.383393287658691e-05
9.486079216003418e-05
0.00010509788990020752
0.00011305510997772217
0.00011734664440155029
0.00011684000492095947
0.00011144578456878662
0.00010193884372711182
9.018182754516602e-05
7.814168930053711e-05
6.759166717529297e-05
5.964934825897217e-05
5.46574592590332e-05
5.2422285079956055e-05
5.221366882324219e-05
5.297362804412842e-05
5.3629279136657715e-05
5.3435564041137695e-05
5.24371862411499e-05
5.1021575927734375e-05
5.0202012062072754e-05
5.111098289489746e-05
5.462765693664551e-05
6.078183650970459e-05
6.875395774841309e-05
7.686018943786621e-05
8.305907249450684e-05
8.502602577209473e-05
8.106231689453125e-05
7.016956806182861e-05
5.2362680435180664e-05
2.8699636459350586e-05
9.5367431640625e-07
0.00013619661331176758
0.00012034177780151367
0.00010529160499572754
9.104609489440918e-05
7.782876491546631e-05
6.54757022857666e-05
5.40614128112793e-05
4.3585896492004395e-05
3.412365913391113e-05
2.561509609222412e-05
1.8030405044555664e-05
1.1414289474487305e-05
5.677342414855957e-06
7.897615432739258e-07
-3.248453140258789e-06
-6.5267086029052734e-06
-9.059906005859375e-06
-1.0952353477478027e-05
-1.2218952178955078e-05
-1.2978911399841309e-05
-1.3247132301330566e-05
-1.3113021850585938e-05
-1.2636184692382812e-05
-1.1801719665527344e-05
-1.0713934898376465e-05
-9.34302806854248e-06
-7.763504981994629e-06
-5.8710575103759766e-06
-3.725290298461914e-06
-1.2814998626708984e-06
1.430511474609375e-06
4.410743713378906e-06
7.599592208862305e-06
1.1026859283447266e-05
1.455843448638916e-05
1.798570156097412e-05
2.12937593460083e-05
2.4244189262390137e-05
2.6553869247436523e-05
2.8133392333984375e-05
2.8774142265319824e-05
2.8431415557861328e-05
2.695620059967041e-05
2.4273991584777832e-05
2.053380012512207e-05
1.5914440155029297e-05
1.0654330253601074e-05
4.947185516357422e-06
-7.152557373046875e-07
-6.094574928283691e-06
-1.0594725608825684e-05
-1.3932585716247559e-05
-1.5676021575927734e-05
-1.5720725059509277e-05
-1.3843178749084473e-05
-1.0311603546142578e-05
-5.424022674560547e-06
2.980232238769531e-07
6.4373016357421875e-06
1.2472271919250488e-05
1.8224120140075684e-05
2.3663043975830078e-05
2.9072165489196777e-05
3.485381603240967e-05
4.155933856964111e-05
4.9591064453125e-05
5.918741226196289e-05
7.021427154541016e-05
8.203089237213135e-05
9.3802809715271e-05
0.00010399520397186279
0.00011095404624938965
0.0001135021448135376
0.00011101365089416504
0.00010387599468231201
9.363889694213867e-05
8.231401443481445e-05
7.179379463195801e-05
6.352365016937256e-05
5.817413330078125e-05
5.5730342864990234e-05
5.555152893066406e-05
5.6624412536621094e-05
5.7950615882873535e-05
5.8591365814208984e-05
5.805492401123047e-05
5.653500556945801e-05
5.485117435455322e-05
5.431473255157471e-05
5.583465099334717e-05
5.996227264404297e-05
6.633996963500977e-05
7.380545139312744e-05
8.058547973632812e-05
8.442997932434082e-05
8.338689804077148e-05
7.605552673339844e-05
6.192922592163086e-05
4.1425228118896484e-05
1.5914440155029297e-05
0.0001173168420791626
0.00010192394256591797
8.751451969146729e-05
7.41034746170044e-05
6.179511547088623e-05
5.0380825996398926e-05
4.0024518966674805e-05
3.0621886253356934e-05
2.2277235984802246e-05
1.4841556549072266e-05
8.404254913330078e-06
2.8759241104125977e-06
-1.8477439880371094e-06
-5.692243576049805e-06
-8.702278137207031e-06
-1.1101365089416504e-05
-1.2725591659545898e-05
-1.3768672943115234e-05
-1.424551010131836e-05
-1.430511474609375e-05
-1.3902783393859863e-05
-1.3113021850585938e-05
-1.2025237083435059e-05
-1.0669231414794922e-05
-9.059906005859375e-06
-7.167458534240723e-06
-5.066394805908203e-06
-2.5779008865356445e-06
1.4901161193847656e-07
3.248453140258789e-06
6.645917892456055e-06
1.043081283569336e-05
1.461803913116455e-05
1.8998980522155762e-05
2.3499131202697754e-05
2.8133392333984375e-05
3.2514333724975586e-05
3.65525484085083e-05
3.997981548309326e-05
4.251301288604736e-05
4.398822784423828e-05
4.430115222930908e-05
4.32431697845459e-05
4.076957702636719e-05
3.6910176277160645e-05
3.172457218170166e-05
2.5480985641479492e-05
1.831352710723877e-05
1.0773539543151855e-05
2.950429916381836e-06
-4.4852495193481445e-06
-1.1175870895385742e-05
-1.6510486602783203e-05
-2.0265579223632812e-05
-2.205371856689453e-05
-2.174079418182373e-05
-1.9550323486328125e-05
-1.5795230865478516e-05
-1.0877847671508789e-05
-5.289912223815918e-06
6.407499313354492e-07
6.660819053649902e-06
1.2800097465515137e-05
1.9356608390808105e-05
2.6658177375793457e-05
3.509223461151123e-05
4.500150680541992e-05
5.631148815155029e-05
6.887316703796387e-05
8.17030668258667e-05
9.37432050704956e-05
0.00010322034358978271
0.00010873377323150635
0.00010925531387329102
0.00010478496551513672
9.647011756896973e-05
8.620321750640869e-05
7.605552673339844e-05
6.765127182006836e-05
6.204843521118164e-05
5.933642387390137e-05
5.905330181121826e-05
6.0424208641052246e-05
6.23166561126709e-05
6.361305713653564e-05
6.364285945892334e-05
6.237626075744629e-05
6.033480167388916e-05
5.8650970458984375e-05
5.838274955749512e-05
6.045401096343994e-05
6.502866744995117e-05
7.133185863494873e-05
7.784366607666016e-05
8.270144462585449e-05
8.380413055419922e-05
7.949769496917725e-05
6.878376007080078e-05
5.1528215408325195e-05
2.872943878173828e-05
9.731948375701904e-05
8.274614810943604e-05
6.923079490661621e-05
5.681812763214111e-05
4.552304744720459e-05
3.5256147384643555e-05
2.6017427444458008e-05
1.7851591110229492e-05
1.0669231414794922e-05
4.500150680541992e-06
-8.046627044677734e-07
-5.170702934265137e-06
-8.687376976013184e-06
-1.138448715209961e-05
-1.3381242752075195e-05
-1.4692544937133789e-05
-1.5407800674438477e-05
-1.5541911125183105e-05
-1.5154480934143066e-05
-1.4409422874450684e-05
-1.329183578491211e-05
-1.1786818504333496e-05
-1.0073184967041016e-05
-8.106231689453125e-06
-5.885958671569824e-06
-3.4868717193603516e-06
-7.748603820800781e-07
2.2351741790771484e-06
5.5730342864990234e-06
9.328126907348633e-06
1.3500452041625977e-05
1.811981201171875e-05
2.314150333404541e-05
2.849102020263672e-05
3.413856029510498e-05
3.984570503234863e-05
4.5418739318847656e-05
5.066394805908203e-05
5.526840686798096e-05
5.8978796005249023e-05
6.161630153656006e-05
6.289780139923096e-05
6.258487701416016e-05
6.064772605895996e-05
5.7071447372436523e-05
5.1841139793395996e-05
4.525482654571533e-05
3.7223100662231445e-05
2.828240394592285e-05
1.8581748008728027e-05
8.702278137207031e-06
-9.387731552124023e-07
-9.745359420776367e-06
-1.728534698486328e-05
-2.302229404449463e-05
-2.6598572731018066e-05
-2.7865171432495117e-05
-2.6971101760864258e-05
-2.4199485778808594e-05
-1.9952654838562012e-05
-1.4677643775939941e-05
-8.732080459594727e-06
-2.2649765014648438e-06
4.738569259643555e-06
1.245737075805664e-05
2.1204352378845215e-05
3.126263618469238e-05
4.279613494873047e-05
5.5596232414245605e-05
6.92605972290039e-05
8.265674114227295e-05
9.433925151824951e-05
0.00010251998901367188
0.00010608136653900146
0.00010448694229125977
9.854137897491455e-05
8.971989154815674e-05
8.021295070648193e-05
7.194280624389648e-05
6.61015510559082e-05
6.313621997833252e-05
6.276369094848633e-05
6.426870822906494e-05
6.656348705291748e-05
6.850063800811768e-05
6.927549839019775e-05
6.842613220214844e-05
6.628036499023438e-05
6.380677223205566e-05
6.212294101715088e-05
6.23166561126709e-05
6.48796558380127e-05
6.958842277526855e-05
7.53551721572876e-05
8.046627044677734e-05
8.291006088256836e-05
8.091330528259277e-05
7.31348991394043e-05
5.91278076171875e-05
3.917515277862549e-05
7.680058479309082e-05
6.313621997833252e-05
5.073845386505127e-05
3.953278064727783e-05
2.942979335784912e-05
2.0444393157958984e-05
1.2546777725219727e-05
5.677342414855957e-06
-1.6391277313232422e-07
-5.066394805908203e-06
-9.03010368347168e-06
-1.2159347534179688e-05
-1.4454126358032227e-05
-1.601874828338623e-05
-1.6883015632629395e-05
-1.7091631889343262e-05
-1.6734004020690918e-05
-1.5929341316223145e-05
-1.4647841453552246e-05
-1.30385160446167e-05
-1.1116266250610352e-05
-8.970499038696289e-06
-6.586313247680664e-06
-4.038214683532715e-06
-1.1920928955078125e-06
1.773238182067871e-06
5.036592483520508e-06
8.657574653625488e-06
1.259148120880127e-05
1.6987323760986328e-05
2.180039882659912e-05
2.7194619178771973e-05
3.30805778503418e-05
3.93986701965332e-05
4.604458808898926e-05
5.285441875457764e-05
5.9604644775390625e-05
6.608664989471436e-05
7.192790508270264e-05
7.696449756622314e-05
8.080899715423584e-05
8.314847946166992e-05
8.384883403778076e-05
8.285045623779297e-05
8.000433444976807e-05
7.528066635131836e-05
6.86943531036377e-05
6.051361560821533e-05
5.0827860832214355e-05
3.9964914321899414e-05
2.8267502784729004e-05
1.627206802368164e-05
4.410743713378906e-06
-6.616115570068359e-06
-1.6286969184875488e-05
-2.396106719970703e-05
-2.931058406829834e-05
-3.202259540557861e-05
-3.230571746826172e-05
-3.0338764190673828e-05
-2.6494264602661133e-05
-2.1398067474365234e-05
-1.519918441772461e-05
-8.165836334228516e-06
-3.427267074584961e-07
8.553266525268555e-06
1.8581748008728027e-05
2.995133399963379e-05
4.285573959350586e-05
5.6803226470947266e-05
7.113814353942871e-05
8.447468280792236e-05
9.514391422271729e-05
0.00010159611701965332
0.00010304152965545654
9.958446025848389e-05
9.262561798095703e-05
8.411705493927002e-05
7.615983486175537e-05
7.02887773513794e-05
6.714463233947754e-05
6.666779518127441e-05
6.821751594543457e-05
7.086992263793945e-05