# vtk DataFile Version 3.0
2D PINN Solution
ASCII
DATASET STRUCTURED_GRID
DIMENSIONS 100 100 1
POINTS 10000 float
-1.0 -1.0 0.0
-0.9797979797979798 -1.0 0.0
-0.9595959595959596 -1.0 0.0
-0.9393939393939394 -1.0 0.0
-0.9191919191919192 -1.0 0.0
-0.898989898989899 -1.0 0.0
-0.8787878787878788 -1.0 0.0
-0.8585858585858586 -1.0 0.0
-0.8383838383838383 -1.0 0.0
-0.8181818181818181 -1.0 0.0
-0.797979797979798 -1.0 0.0
-0.7777777777777778 -1.0 0.0
-0.7575757575757576 -1.0 0.0
-0.7373737373737373 -1.0 0.0
-0.7171717171717171 -1.0 0.0
-0.696969696969697 -1.0 0.0
-0.6767676767676767 -1.0 0.0
-0.6565656565656566 -1.0 0.0
-0.6363636363636364 -1.0 0.0
-0.6161616161616161 -1.0 0.0
-0.5959595959595959 -1.0 0.0
-0.5757575757575757 -1.0 0.0
-0.5555555555555556 -1.0 0.0
-0.5353535353535352 -1.0 0.0
-0.5151515151515151 -1.0 0.0
-0.4949494949494949 -1.0 0.0
-0.4747474747474747 -1.0 0.0
-0.4545454545454545 -1.0 0.0
-0.43434343434343425 -1.0 0.0
-0.41414141414141414 -1.0 0.0
-0.3939393939393939 -1.0 0.0
-0.3737373737373737 -1.0 0.0
-0.3535353535353535 -1.0 0.0
-0.33333333333333326 -1.0 0.0
-0.31313131313131304 -1.0 0.0
-0.2929292929292928 -1.0 0.0
-0.2727272727272727 -1.0 0.0
-0.2525252525252525 -1.0 0.0
-0.23232323232323226 -1.0 0.0
-0.21212121212121204 -1.0 0.0
-0.19191919191919182 -1.0 0.0
-0.1717171717171716 -1.0 0.0
-0.1515151515151515 -1.0 0.0
-0.13131313131313127 -1.0 0.0
-0.11111111111111105 -1.0 0.0
-0.09090909090909083 -1.0 0.0
-0.07070707070707061 -1.0 0.0
-0.050505050505050386 -1.0 0.0
-0.030303030303030276 -1.0 0.0
-0.010101010101010055 -1.0 0.0
0.010101010101010166 -1.0 0.0
0.030303030303030498 -1.0 0.0
0.05050505050505061 -1.0 0.0
0.07070707070707072 -1.0 0.0
0.09090909090909105 -1.0 0.0
0.11111111111111116 -1.0 0.0
0.1313131313131315 -1.0 0.0
0.1515151515151516 -1.0 0.0
0.1717171717171717 -1.0 0.0
0.19191919191919204 -1.0 0.0
0.21212121212121215 -1.0 0.0
0.2323232323232325 -1.0 0.0
0.2525252525252526 -1.0 0.0
0.27272727272727293 -1.0 0.0
0.29292929292929304 -1.0 0.0
0.31313131313131315 -1.0 0.0
0.3333333333333335 -1.0 0.0
0.3535353535353536 -1.0 0.0
0.3737373737373739 -1.0 0.0
0.39393939393939403 -1.0 0.0
0.41414141414141437 -1.0 0.0
0.4343434343434345 -1.0 0.0
0.4545454545454546 -1.0 0.0
0.4747474747474749 -1.0 0.0
0.49494949494949503 -1.0 0.0
0.5151515151515154 -1.0 0.0
0.5353535353535355 -1.0 0.0
0.5555555555555556 -1.0 0.0
0.5757575757575759 -1.0 0.0
0.595959595959596 -1.0 0.0
0.6161616161616164 -1.0 0.0
0.6363636363636365 -1.0 0.0
0.6565656565656568 -1.0 0.0
0.6767676767676769 -1.0 0.0
0.696969696969697 -1.0 0.0
0.7171717171717173 -1.0 0.0
0.7373737373737375 -1.0 0.0
0.7575757575757578 -1.0 0.0
0.7777777777777779 -1.0 0.0
0.7979797979797982 -1.0 0.0
0.8181818181818183 -1.0 0.0
0.8383838383838385 -1.0 0.0
0.8585858585858588 -1.0 0.0
0.8787878787878789 -1.0 0.0
0.8989898989898992 -1.0 0.0
0.9191919191919193 -1.0 0.0
0.9393939393939394 -1.0 0.0
0.9595959595959598 -1.0 0.0
0.9797979797979799 -1.0 0.0
1.0 -1.0 0.0
-1.0 -0.9797979797979798 0.0
-0.9797979797979798 -0.9797979797979798 0.0
-0.9595959595959596 -0.9797979797979798 0.0
-0.9393939393939394 -0.9797979797979798 0.0
-0.9191919191919192 -0.9797979797979798 0.0
-0.898989898989899 -0.9797979797979798 0.0
-0.8787878787878788 -0.9797979797979798 0.0
-0.8585858585858586 -0.9797979797979798 0.0
-0.8383838383838383 -0.9797979797979798 0.0
-0.8181818181818181 -0.9797979797979798 0.0
-0.797979797979798 -0.9797979797979798 0.0
-0.7777777777777778 -0.9797979797979798 0.0
-0.7575757575757576 -0.9797979797979798 0.0
-0.7373737373737373 -0.9797979797979798 0.0
-0.7171717171717171 -0.9797979797979798 0.0
-0.696969696969697 -0.9797979797979798 0.0
-0.6767676767676767 -0.9797979797979798 0.0
-0.6565656565656566 -0.9797979797979798 0.0
-0.6363636363636364 -0.9797979797979798 0.0
-0.6161616161616161 -0.9797979797979798 0.0
-0.5959595959595959 -0.9797979797979798 0.0
-0.5757575757575757 -0.9797979797979798 0.0
-0.5555555555555556 -0.9797979797979798 0.0
-0.5353535353535352 -0.9797979797979798 0.0
-0.5151515151515151 -0.9797979797979798 0.0
-0.4949494949494949 -0.9797979797979798 0.0
-0.4747474747474747 -0.9797979797979798 0.0
-0.4545454545454545 -0.9797979797979798 0.0
-0.43434343434343425 -0.9797979797979798 0.0
-0.41414141414141414 -0.9797979797979798 0.0
-0.3939393939393939 -0.9797979797979798 0.0
-0.3737373737373737 -0.9797979797979798 0.0
-0.3535353535353535 -0.9797979797979798 0.0
-0.33333333333333326 -0.9797979797979798 0.0
-0.31313131313131304 -0.9797979797979798 0.0
-0.2929292929292928 -0.9797979797979798 0.0
-0.2727272727272727 -0.9797979797979798 0.0
-0.2525252525252525 -0.9797979797979798 0.0
-0.23232323232323226 -0.9797979797979798 0.0
-0.21212121212121204 -0.9797979797979798 0.0
-0.19191919191919182 -0.9797979797979798 0.0
-0.1717171717171716 -0.9797979797979798 0.0
-0.1515151515151515 -0.9797979797979798 0.0
-0.13131313131313127 -0.9797979797979798 0.0
-0.11111111111111105 -0.9797979797979798 0.0
-0.09090909090909083 -0.9797979797979798 0.0
-0.07070707070707061 -0.9797979797979798 0.0
-0.050505050505050386 -0.9797979797979798 0.0
-0.030303030303030276 -0.9797979797979798 0.0
-0.010101010101010055 -0.9797979797979798 0.0
0.010101010101010166 -0.9797979797979798 0.0
0.030303030303030498 -0.9797979797979798 0.0
0.05050505050505061 -0.9797979797979798 0.0
0.07070707070707072 -0.9797979797979798 0.0
0.09090909090909105 -0.9797979797979798 0.0
0.11111111111111116 -0.9797979797979798 0.0
0.1313131313131315 -0.9797979797979798 0.0
0.1515151515151516 -0.9797979797979798 0.0
0.1717171717171717 -0.9797979797979798 0.0
0.19191919191919204 -0.9797979797979798 0.0
0.21212121212121215 -0.9797979797979798 0.0
0.2323232323232325 -0.9797979797979798 0.0
0.2525252525252526 -0.9797979797979798 0.0
0.27272727272727293 -0.9797979797979798 0.0
0.29292929292929304 -0.9797979797979798 0.0
0.31313131313131315 -0.9797979797979798 0.0
0.3333333333333335 -0.9797979797979798 0.0
0.3535353535353536 -0.9797979797979798 0.0
0.3737373737373739 -0.9797979797979798 0.0
0.39393939393939403 -0.9797979797979798 0.0
0.41414141414141437 -0.9797979797979798 0.0
0.4343434343434345 -0.9797979797979798 0.0
0.4545454545454546 -0.9797979797979798 0.0
0.4747474747474749 -0.9797979797979798 0.0
0.49494949494949503 -0.9797979797979798 0.0
0.5151515151515154 -0.9797979797979798 0.0
0.5353535353535355 -0.9797979797979798 0.0
0.5555555555555556 -0.9797979797979798 0.0
0.5757575757575759 -0.9797979797979798 0.0
0.595959595959596 -0.9797979797979798 0.0
0.6161616161616164 -0.9797979797979798 0.0
0.6363636363636365 -0.9797979797979798 0.0
0.6565656565656568 -0.9797979797979798 0.0
0.6767676767676769 -0.9797979797979798 0.0
0.696969696969697 -0.9797979797979798 0.0
0.7171717171717173 -0.9797979797979798 0.0
0.7373737373737375 -0.9797979797979798 0.0
0.7575757575757578 -0.9797979797979798 0.0
0.7777777777777779 -0.9797979797979798 0.0
0.7979797979797982 -0.9797979797979798 0.0
0.8181818181818183 -0.9797979797979798 0.0
0.8383838383838385 -0.9797979797979798 0.0
0.8585858585858588 -0.9797979797979798 0.0
0.8787878787878789 -0.9797979797979798 0.0
0.8989898989898992 -0.9797979797979798 0.0
0.9191919191919193 -0.9797979797979798 0.0
0.9393939393939394 -0.9797979797979798 0.0
0.9595959595959598 -0.9797979797979798 0.0
0.9797979797979799 -0.9797979797979798 0.0
1.0 -0.9797979797979798 0.0
-1.0 -0.9595959595959596 0.0
-0.9797979797979798 -0.9595959595959596 0.0
-0.9595959595959596 -0.9595959595959596 0.0
-0.9393939393939394 -0.9595959595959596 0.0
-0.9191919191919192 -0.9595959595959596 0.0
-0.898989898989899 -0.9595959595959596 0.0
-0.8787878787878788 -0.9595959595959596 0.0
-0.8585858585858586 -0.9595959595959596 0.0
-0.8383838383838383 -0.9595959595959596 0.0
-0.8181818181818181 -0.9595959595959596 0.0
-0.797979797979798 -0.9595959595959596 0.0
-0.7777777777777778 -0.9595959595959596 0.0
-0.7575757575757576 -0.9595959595959596 0.0
-0.7373737373737373 -0.9595959595959596 0.0
-0.7171717171717171 -0.9595959595959596 0.0
-0.696969696969697 -0.9595959595959596 0.0
-0.6767676767676767 -0.9595959595959596 0.0
-0.6565656565656566 -0.9595959595959596 0.0
-0.6363636363636364 -0.9595959595959596 0.0
-0.6161616161616161 -0.9595959595959596 0.0
-0.5959595959595959 -0.9595959595959596 0.0
-0.5757575757575757 -0.9595959595959596 0.0
-0.5555555555555556 -0.9595959595959596 0.0
-0.5353535353535352 -0.9595959595959596 0.0
-0.5151515151515151 -0.9595959595959596 0.0
-0.4949494949494949 -0.9595959595959596 0.0
-0.4747474747474747 -0.9595959595959596 0.0
-0.4545454545454545 -0.9595959595959596 0.0
-0.43434343434343425 -0.9595959595959596 0.0
-0.41414141414141414 -0.9595959595959596 0.0
-0.3939393939393939 -0.9595959595959596 0.0
-0.3737373737373737 -0.9595959595959596 0.0
-0.3535353535353535 -0.9595959595959596 0.0
-0.33333333333333326 -0.9595959595959596 0.0
-0.31313131313131304 -0.9595959595959596 0.0
-0.2929292929292928 -0.9595959595959596 0.0
-0.2727272727272727 -0.9595959595959596 0.0
-0.2525252525252525 -0.9595959595959596 0.0
-0.23232323232323226 -0.9595959595959596 0.0
-0.21212121212121204 -0.9595959595959596 0.0
-0.19191919191919182 -0.9595959595959596 0.0
-0.1717171717171716 -0.9595959595959596 0.0
-0.1515151515151515 -0.9595959595959596 0.0
-0.13131313131313127 -0.9595959595959596 0.0
-0.11111111111111105 -0.9595959595959596 0.0
-0.09090909090909083 -0.9595959595959596 0.0
-0.07070707070707061 -0.9595959595959596 0.0
-0.050505050505050386 -0.9595959595959596 0.0
-0.030303030303030276 -0.9595959595959596 0.0
-0.010101010101010055 -0.9595959595959596 0.0
0.010101010101010166 -0.9595959595959596 0.0
0.030303030303030498 -0.9595959595959596 0.0
0.05050505050505061 -0.9595959595959596 0.0
0.07070707070707072 -0.9595959595959596 0.0
0.09090909090909105 -0.9595959595959596 0.0
0.11111111111111116 -0.9595959595959596 0.0
0.1313131313131315 -0.9595959595959596 0.0
0.1515151515151516 -0.9595959595959596 0.0
0.1717171717171717 -0.9595959595959596 0.0
0.19191919191919204 -0.9595959595959596 0.0
0.21212121212121215 -0.9595959595959596 0.0
[...]
POINT_DATA 10000
SCALARS u float 1
LOOKUP_TABLE default
-3.612041473388672e-05
-4.573166370391846e-05
-5.5089592933654785e-05
-6.414949893951416e-05
-7.294118404388428e-05
-8.121132850646973e-05
-8.906424045562744e-05
-9.644031524658203e-05
-0.00010325014591217041
-0.00010952353477478027
-0.00011530518531799316
-0.00012068450450897217
-0.00012561678886413574
-0.0001302659511566162
-0.00013464689254760742
-0.00013884902000427246
-0.0001430213451385498
-0.0001471489667892456
-0.00015145540237426758
-0.00015588104724884033
-0.00016042590141296387
-0.00016507506370544434
-0.00016984343528747559
-0.00017473101615905762
-0.00017961859703063965
-0.0001844465732574463
-0.00018928945064544678
-0.00019407272338867188
-0.0001986473798751831
-0.00020319223403930664
-0.00020772218704223633
-0.00021213293075561523
-0.00021654367446899414
-0.00022095441818237305
-0.0002253204584121704
-0.00022965669631958008
-0.00023396313190460205
-0.00023806095123291016
-0.00024203956127166748
-0.00024560093879699707
-0.00024881958961486816
-0.00025150179862976074
-0.00025360286235809326
-0.00025497376918792725
-0.00025568902492523193
-0.0002556145191192627
-0.0002547800540924072
-0.00025323033332824707
-0.0002508610486984253
-0.0002477318048477173
-0.00024397671222686768
-0.00023947656154632568
-0.00023452937602996826
-0.00022906064987182617
-0.00022311508655548096
-0.00021685659885406494
-0.00021032989025115967
-0.00020353496074676514
-0.0001967102289199829
-0.00018987059593200684
-0.00018298625946044922
-0.00017631053924560547
-0.0001697838306427002
-0.00016342103481292725
-0.0001573115587234497
-0.0001515597105026245
-0.00014612078666687012
-0.000141143798828125
-0.00013653934001922607
-0.00013244152069091797
-0.0001287311315536499
-0.0001255720853805542
-0.00012288987636566162
-0.0001207590103149414
-0.00011917948722839355
-0.00011813640594482422
-0.00011768937110900879
-0.00011785328388214111
-0.00011861324310302734
-0.00011995434761047363
-0.00012193620204925537
-0.00012445449829101562
-0.00012761354446411133
-0.00013127923011779785
-0.0001353919506072998
-0.0001399517059326172
-0.00014477968215942383
-0.00014987587928771973
-0.00015507638454437256
-0.00016033649444580078
-0.00016532838344573975
-0.0001701265573501587
-0.0001745373010635376
-0.0001783818006515503
-0.00018158555030822754
-0.00018416345119476318
-0.0001859217882156372
-0.0001868605613708496
-0.0001868903636932373
-0.000186040997505188
-3.693997859954834e-05
-4.5806169509887695e-05
-5.4463744163513184e-05
-6.286799907684326e-05
-7.095932960510254e-05
-7.860362529754639e-05
-8.592009544372559e-05
-9.268522262573242e-05
-9.906291961669922e-05
-0.00010491907596588135
-0.00011037290096282959
-0.00011536478996276855
-0.00011996924877166748
-0.0001243501901626587
-0.0001285076141357422
-0.00013250112533569336
-0.00013656914234161377
-0.0001407414674758911
-0.00014497339725494385
-0.0001494288444519043
-0.00015410780906677246
-0.00015892088413238525
-0.00016394257545471191
-0.00016911327838897705
-0.00017429888248443604
-0.00017951428890228271
-0.00018471479415893555
-0.00018978118896484375
-0.00019481778144836426
-0.00019972026348114014
-0.00020444393157958984
-0.0002091825008392334
-0.00021392107009887695
-0.00021852552890777588
-0.0002232193946838379
-0.00022779405117034912
-0.00023236870765686035
-0.00023683905601501465
-0.00024105608463287354
-0.0002450495958328247
-0.0002485513687133789
-0.0002516508102416992
-0.00025409460067749023
-0.0002558976411819458
-0.00025694072246551514
-0.0002572089433670044
-0.0002566874027252197
-0.00025537610054016113
-0.00025323033332824707
-0.00025035440921783447
-0.0002466738224029541
-0.00024241209030151367
-0.00023749470710754395
-0.00023214519023895264
-0.0002262890338897705
-0.00022014975547790527
-0.00021372735500335693
-0.00020711123943328857
-0.00020048022270202637
-0.0001938343048095703
-0.0001872926950454712
-0.000180855393409729
-0.00017465651035308838
-0.00016865134239196777
-0.00016298890113830566
-0.00015754997730255127
-0.0001525282859802246
-0.00014784932136535645
-0.00014351308345794678
-0.00013965368270874023
-0.00013618171215057373
-0.0001331120729446411
-0.00013048946857452393
-0.0001283586025238037
-0.00012665987014770508
-0.00012545287609100342
-0.00012476742267608643
-0.0001245737075805664
-0.0001249164342880249
-0.000125885009765625
-0.00012734532356262207
-0.0001294165849685669
-0.0001320093870162964
-0.00013518333435058594
-0.00013884902000427246
-0.00014300644397735596
-0.0001474618911743164
-0.0001522749662399292
-0.00015725195407867432
-0.00016222894191741943
-0.00016720592975616455
-0.0001719743013381958
-0.00017632544040679932
-0.00018024444580078125
-0.00018361210823059082
-0.0001862943172454834
-0.0001881718635559082
-0.00018925964832305908
-0.00018943846225738525
-0.00018869340419769287
-3.71783971786499e-05
-4.534423351287842e-05
-5.334615707397461e-05
-6.1005353927612305e-05
-6.844103336334229e-05
-7.550418376922607e-05
-8.220970630645752e-05
-8.849799633026123e-05
-9.444355964660645e-05
-9.988248348236084e-05
-0.00010491907596588135
-0.00010955333709716797
-0.00011391937732696533
-0.00011798739433288574
-0.00012193620204925537
-0.00012578070163726807
-0.00012968480587005615
-0.00013373792171478271
-0.0001379847526550293
-0.0001424551010131836
-0.0001471489667892456
-0.00015215575695037842
-0.0001573711633682251
-0.0001627504825592041
-0.00016827881336212158
-0.00017377734184265137
-0.000179290771484375
-0.0001847296953201294
-0.000190049409866333
-0.00019522011280059814
-0.0002003312110900879
-0.00020532310009002686
-0.00021031498908996582
-0.000215187668800354
-0.00022014975547790527
-0.000225067138671875
-0.00022998452186584473
-0.00023473799228668213
-0.0002393573522567749
-0.00024369359016418457
-0.00024771690368652344
-0.00025118887424468994
-0.00025403499603271484
-0.00025628507137298584
-0.0002577155828475952
-0.0002583414316177368
-0.0002580881118774414
-0.0002570301294326782
-0.0002551078796386719
-0.00025235116481781006
-0.00024881958961486816
-0.0002445727586746216
-0.00023971498012542725
-0.0002342313528060913
-0.00022837519645690918
-0.00022220611572265625
-0.0002158433198928833
-0.00020928680896759033
-0.0002027451992034912
-0.00019627809524536133
-0.00018994510173797607
-0.000183790922164917
-0.00017783045768737793
-0.00017219781875610352
-0.0001669079065322876
-0.00016190111637115479
-0.00015722215175628662
-0.00015291571617126465
-0.00014899671077728271
-0.00014540553092956543
-0.00014223158359527588
-0.00013940036296844482
-0.00013694167137145996
-0.00013490021228790283
-0.0001332312822341919
-0.0001319795846939087
-0.00013117492198944092
-0.00013080239295959473
-0.00013086199760437012
-0.00013151764869689941
-0.00013262033462524414
-0.00013428926467895508
-0.00013649463653564453
-0.0001392960548400879
-0.00014254450798034668
-0.00014635920524597168
-0.00015044212341308594
-0.00015498697757720947
-0.00015969574451446533
-0.00016455352306365967
-0.0001693814992904663
-0.00017407536506652832
-0.00017853081226348877
-0.00018243491649627686
-0.00018590688705444336
-0.00018867850303649902
-0.00019069015979766846
-0.00019185245037078857
-0.00019216537475585938
-0.00019153952598571777
-3.676116466522217e-05
-4.431605339050293e-05
-5.1587820053100586e-05
-5.866587162017822e-05
-6.54458999633789e-05
-7.195770740509033e-05
-7.809698581695557e-05
-8.393824100494385e-05
-8.93324613571167e-05
-9.444355964660645e-05
-9.913742542266846e-05
-0.00010347366333007812
-0.00010755658149719238
-0.00011135637760162354
-0.00011508166790008545
-0.00011876225471496582
-0.0001224726438522339
-0.00012642145156860352
-0.00013054907321929932
-0.00013497471809387207
-0.00013975799083709717
-0.00014480948448181152
-0.00015018880367279053
-0.0001558363437652588
-0.00016157329082489014
-0.00016741454601287842
-0.00017318129539489746
-0.00017887353897094727
-0.00018450617790222168
-0.00019000470638275146
-0.00019532442092895508
-0.00020062923431396484
-0.00020584464073181152
-0.00021110475063323975
-0.00021632015705108643
-0.00022152066230773926
-0.00022678077220916748
-0.0002319812774658203
-0.0002371072769165039
-0.00024187564849853516
-0.000246390700340271
-0.00025035440921783447
-0.0002537369728088379
-0.0002564042806625366
-0.0002582967281341553
-0.0002593100070953369
-0.0002593696117401123
-0.0002585500478744507
-0.0002567470073699951
-0.0002541393041610718
-0.0002506375312805176
-0.00024637579917907715
-0.00024139881134033203
-0.0002358555793762207
-0.0002299100160598755
-0.00022360682487487793
-0.0002171248197555542
-0.00021058320999145508
-0.00020399689674377441
-0.00019763410091400146
-0.000191420316696167
-0.00018543004989624023
-0.00017979741096496582
-0.00017440319061279297
-0.0001694709062576294
-0.00016479194164276123
-0.00016054511070251465
-0.00015664100646972656
-0.00015303492546081543
-0.00014981627464294434
-0.00014691054821014404
-0.00014442205429077148
-0.00014223158359527588
-0.00014032423496246338
-0.00013884902000427246
-0.00013765692710876465
-0.00013689696788787842
-0.0001363903284072876
-0.0001363903284072876
-0.00013680756092071533
-0.00013771653175354004
-0.00013908743858337402
-0.00014096498489379883
-0.00014343857765197754
-0.00014637410640716553
-0.00014978647232055664
-0.00015364587306976318
-0.00015792250633239746
-0.00016245245933532715
-0.0001671314239501953
-0.00017192959785461426
-0.00017657876014709473
-0.00018098950386047363
-0.00018499791622161865
-0.0001885145902633667
-0.0001913607120513916
-0.00019343197345733643
-0.00019472837448120117
-0.00019501149654388428
-0.00019447505474090576
-3.5881996154785156e-05
-4.2751431465148926e-05
-4.9427151679992676e-05
-5.580484867095947e-05
-6.204843521118164e-05
-6.80088996887207e-05
-7.364153861999512e-05
-7.903575897216797e-05
-8.408725261688232e-05
-8.873641490936279e-05
-9.308755397796631e-05
-9.712576866149902e-05
-0.00010094046592712402
-0.00010451674461364746
-0.00010800361633300781
-0.00011143088340759277
-0.0001150667667388916
-0.00011876225471496582
-0.00012284517288208008
-0.00012728571891784668
-0.00013202428817749023
-0.00013716518878936768
-0.0001426488161087036
-0.0001484304666519165
-0.00015434622764587402
-0.00016038119792938232
-0.00016646087169647217
-0.00017242133617401123
-0.00017833709716796875
-0.0001841038465499878
-0.00018972158432006836
-0.000195235013961792
-0.00020074844360351562
-0.0002062469720840454
-0.00021179020404815674
-0.00021742284297943115
-0.00022311508655548096
-0.00022877752780914307
-0.00023442506790161133
-0.00023983418941497803
-0.00024490058422088623
-0.00024947524070739746
-0.0002534240484237671
-0.0002566128969192505
-0.00025895237922668457
-0.0002603679895401001
-0.00026078522205352783
-0.0002601742744445801
-0.000258520245552063
-0.0002559274435043335
-0.000252455472946167
-0.00024805963039398193
-0.00024296343326568604
-0.0002372264862060547
-0.00023105740547180176
-0.00022456049919128418
-0.00021788477897644043
-0.00021117925643920898
-0.00020459294319152832
-0.00019812583923339844
-0.0001919865608215332
-0.00018610060214996338
-0.00018058717250823975
-0.0001755058765411377
-0.000170782208442688
-0.00016641616821289062
-0.00016245245933532715
-0.0001589059829711914
-0.0001556873321533203
-0.0001528412103652954
-0.0001503080129623413
-0.000148087739944458
-0.0001462399959564209
-0.0001446455717086792
-0.00014331936836242676
-0.0001423656940460205
-0.00014168024063110352
-0.00014126300811767578
-0.00014118850231170654
-0.00014156103134155273
-0.0001423358917236328
-0.00014355778694152832
-0.00014522671699523926
-0.00014741718769073486
-0.00015014410018920898
-0.00015331804752349854
-0.0001569688320159912
-0.00016102194786071777
-0.00016538798809051514
-0.00017002224922180176
-0.00017468631267547607
-0.00017933547496795654
-0.00018377602100372314
-0.000187799334526062
-0.0001913607120513916
-0.0001942962408065796
-0.0001964271068572998
-0.00019775331020355225
-0.00019818544387817383
-0.00019757449626922607
-3.4496188163757324e-05
-4.07099723815918e-05
-4.6759843826293945e-05
-5.2601099014282227e-05
-5.823373794555664e-05
-6.370246410369873e-05
-6.888806819915771e-05
-7.383525371551514e-05
-7.84844160079956e-05
-8.286535739898682e-05
-8.691847324371338e-05
-9.074807167053223e-05
-9.426474571228027e-05
-9.754300117492676e-05
-0.00010083615779876709
-0.00010414421558380127
-0.00010752677917480469
-0.00011110305786132812
-0.0001150369644165039
-0.00011937320232391357
-0.00012414157390594482
-0.00012926757335662842
-0.0001347959041595459
-0.0001407414674758911
-0.0001468658447265625
-0.00015309453010559082
-0.00015939772129058838
-0.00016564130783081055
-0.00017173588275909424
-0.00017774105072021484
-0.00018361210823059082
-0.0001894235610961914
-0.0001951754093170166
-0.00020101666450500488
-0.00020691752433776855
-0.00021295249462127686
-0.00021916627883911133
-0.0002254396677017212
-0.00023162364959716797
-0.00023774802684783936
-0.0002435445785522461
-0.0002487450838088989
-0.00025340914726257324
-0.00025716423988342285
-0.0002600252628326416
-0.00026182830333709717
-0.00026254355907440186
-0.0002621114253997803
-0.00026063621044158936
-0.00025804340839385986
-0.0002543926239013672
-0.0002498626708984375
-0.0002445429563522339
-0.00023856759071350098
-0.0002320706844329834
-0.00022530555725097656
-0.000218316912651062
-0.00021138787269592285
-0.00020457804203033447
-0.0001979917287826538
-0.00019174814224243164
-0.00018583238124847412
-0.00018042325973510742
-0.00017538666725158691
-0.00017082691192626953
-0.00016666948795318604
-0.00016292929649353027
-0.0001596510410308838
-0.00015679001808166504
-0.00015425682067871094
-0.00015206634998321533
-0.00015026330947875977
-0.00014872848987579346
-0.0001475214958190918
-0.00014647841453552246
-0.00014573335647583008
-0.0001453012228012085
-0.00014512240886688232
-0.00014525651931762695
-0.0001456141471862793
-0.00014638900756835938
-0.00014750659465789795
-0.00014913082122802734
-0.00015123188495635986
-0.00015373528003692627
-0.00015673041343688965
-0.00016026198863983154
-0.00016418099403381348
-0.0001684725284576416
-0.00017303228378295898
-0.00017762184143066406
-0.00018227100372314453
-0.00018675625324249268
-0.00019089877605438232
-0.00019447505474090576
-0.00019752979278564453
-0.0001997053623199463
-0.00020101666450500488
-0.000201493501663208
-0.00020091235637664795
-3.266334533691406e-05
-3.8251280784606934e-05
-4.369020462036133e-05
-4.900991916656494e-05
-5.416572093963623e-05
-5.920231342315674e-05
-6.394088268280029e-05
-6.850063800811768e-05
-7.27921724319458e-05
-7.686018943786621e-05
-8.07046890258789e-05
-8.419156074523926e-05
-8.751451969146729e-05
-9.064376354217529e-05
-9.372830390930176e-05
-9.678304195404053e-05
-9.998679161071777e-05
-0.00010345876216888428
-0.00010722875595092773
-0.00011144578456878662
-0.00011613965034484863
-0.00012132525444030762
-0.0001269131898880005
-0.00013296306133270264
-0.0001391768455505371
-0.00014562904834747314
-0.00015214085578918457
-0.000158652663230896
-0.0001649409532546997
-0.00017116963863372803
-0.00017730891704559326
-0.0001833587884902954
-0.00018940865993499756
-0.00019559264183044434
-0.00020194053649902344
-0.00020840764045715332
-0.00021514296531677246
-0.000222131609916687
-0.00022910535335540771
-0.00023597478866577148
-0.0002425462007522583
-0.0002486109733581543
-0.0002539902925491333
-0.00025838613510131836
-0.00026169419288635254
-0.00026394426822662354
-0.00026488304138183594
-0.0002646148204803467
-0.00026313960552215576
-0.00026044249534606934
-0.0002566725015640259
-0.0002519339323043823
-0.00024628639221191406
-0.00023990869522094727
-0.00023302435874938965
-0.00022585690021514893
-0.00021854043006896973
-0.00021126866340637207
-0.00020407140254974365
-0.0001971721649169922
-0.0001907646656036377
-0.0001847296953201294
-0.00017912685871124268
-0.00017406046390533447
-0.00016945600509643555
-0.00016535818576812744
-0.000161781907081604
-0.00015869736671447754
-0.00015607476234436035
-0.0001538395881652832
-0.0001520216464996338
-0.00015057623386383057
-0.000149458646774292
-0.00014860928058624268
-0.00014802813529968262
-0.00014770030975341797
-0.00014756619930267334
-0.00014771521091461182
-0.00014802813529968262
-0.00014866888523101807
-0.00014954805374145508
-0.00015087425708770752
-0.00015242397785186768
-0.0001544356346130371
-0.00015689432621002197
-0.00015988945960998535
-0.00016336143016815186
-0.0001672506332397461
-0.00017145276069641113
-0.0001760423183441162
-0.00018067657947540283
-0.00018537044525146484
-0.00018991529941558838
-0.00019410252571105957
-0.0001977980136871338
-0.00020088255405426025
-0.0002032071352005005
-0.00020453333854675293
-0.00020498037338256836
-0.00020430982112884521
-3.0353665351867676e-05
-3.542006015777588e-05
-4.038214683532715e-05
-4.5180320739746094e-05
-4.9874186515808105e-05
-5.43743371963501e-05
-5.8785080909729004e-05
-6.295740604400635e-05
-6.699562072753906e-05
-7.082521915435791e-05
-7.440149784088135e-05
-7.769465446472168e-05
-8.085370063781738e-05
-8.381903171539307e-05
-8.669495582580566e-05
-8.963048458099365e-05
-9.265542030334473e-05
-9.594857692718506e-05
-9.958446025848389e-05
-0.00010374188423156738
-0.00010839104652404785
-0.00011351704597473145
-0.0001192241907119751
-0.00012533366680145264
-0.00013175606727600098
-0.00013837218284606934
-0.0001450181007385254
-0.00015172362327575684
-0.0001583397388458252
-0.00016480684280395508
-0.00017119944095611572
-0.00017750263214111328
-0.00018389523029327393
-0.0001903623342514038
-0.00019706785678863525
-0.00020419061183929443
-0.00021153688430786133
-0.0002192854881286621
-0.00022704899311065674
-0.00023481249809265137
-0.00024233758449554443
-0.00024931132793426514
-0.000255391001701355
-0.0002604573965072632
-0.0002643167972564697
-0.00026684999465942383
-0.0002679675817489624
-0.0002677440643310547
-0.0002662241458892822
-0.0002633333206176758
-0.00025932490825653076
-0.00025419890880584717
-0.000248149037361145
-0.0002413243055343628
-0.0002339780330657959
-0.0002262592315673828
-0.00021842122077941895
-0.00021062791347503662
-0.00020298361778259277
-0.00019565224647521973
-0.0001887679100036621
-0.0001824498176574707
-0.00017654895782470703
-0.00017124414443969727
-0.00016649067401885986
-0.00016234815120697021
-0.00015878677368164062
-0.0001558065414428711
-0.00015334784984588623
-0.0001513957977294922
-0.00014986097812652588
-0.0001488327980041504
-0.0001481175422668457
-0.00014778971672058105
-0.00014771521091461182
-0.000147894024848938
-0.00014825165271759033
-0.00014884769916534424
-0.00014959275722503662
-0.00015056133270263672
-0.00015173852443695068
-0.0001532137393951416
-0.00015491247177124023
-0.00015707314014434814
-0.0001596510410308838
-0.0001625269651412964
-0.00016602873802185059
-0.00016991794109344482
-0.0001741945743560791
-0.00017878413200378418
-0.00018355250358581543
-0.00018835067749023438
-0.0001930445432662964
-0.00019735097885131836
-0.00020125508308410645
-0.00020441412925720215
-0.00020678341388702393
-0.0002082139253616333
-0.0002086162567138672
-0.0002079308032989502
-2.771615982055664e-05
-3.2261013984680176e-05
-3.673136234283447e-05
-4.10228967666626e-05
-4.525482654571533e-05
-4.9427151679992676e-05
-5.345046520233154e-05
-5.7384371757507324e-05
-6.118416786193848e-05
-6.474554538726807e-05
-6.815791130065918e-05
-7.134675979614258e-05
-7.429718971252441e-05
-7.714331150054932e-05
-7.991492748260498e-05
-8.270144462585449e-05
-8.556246757507324e-05
-8.875131607055664e-05
-9.231269359588623e-05
-9.636580944061279e-05
-0.00010097026824951172
-0.00010609626770019531
-0.00011186301708221436
-0.00011810660362243652
-0.00012473762035369873
-0.0001315772533416748
-0.0001385509967803955
-0.00014546513557434082
-0.0001522749662399292
-0.00015901029109954834
-0.0001656562089920044
-0.0001722574234008789
-0.00017890334129333496
-0.00018575787544250488
-0.00019288063049316406
-0.00020053982734680176
-0.0002086162567138672
-0.00021705031394958496
-0.00022579729557037354
-0.00023464858531951904
-0.0002432018518447876
-0.00025103986263275146
-0.00025804340839385986
-0.0002637803554534912
-0.00026801228523254395
-0.0002707839012145996