# vtk DataFile Version 3.0
2D PINN Solution
ASCII
DATASET STRUCTURED_GRID
DIMENSIONS 100 100 1
POINTS 10000 float
-1.0 -1.0 0.0
-0.9797979797979798 -1.0 0.0
-0.9595959595959596 -1.0 0.0
-0.9393939393939394 -1.0 0.0
-0.9191919191919192 -1.0 0.0
-0.898989898989899 -1.0 0.0
-0.8787878787878788 -1.0 0.0
-0.8585858585858586 -1.0 0.0
-0.8383838383838383 -1.0 0.0
-0.8181818181818181 -1.0 0.0
-0.797979797979798 -1.0 0.0
-0.7777777777777778 -1.0 0.0
-0.7575757575757576 -1.0 0.0
-0.7373737373737373 -1.0 0.0
-0.7171717171717171 -1.0 0.0
-0.696969696969697 -1.0 0.0
-0.6767676767676767 -1.0 0.0
-0.6565656565656566 -1.0 0.0
-0.6363636363636364 -1.0 0.0
-0.6161616161616161 -1.0 0.0
-0.5959595959595959 -1.0 0.0
-0.5757575757575757 -1.0 0.0
-0.5555555555555556 -1.0 0.0
-0.5353535353535352 -1.0 0.0
-0.5151515151515151 -1.0 0.0
-0.4949494949494949 -1.0 0.0
-0.4747474747474747 -1.0 0.0
-0.4545454545454545 -1.0 0.0
-0.43434343434343425 -1.0 0.0
-0.41414141414141414 -1.0 0.0
-0.3939393939393939 -1.0 0.0
-0.3737373737373737 -1.0 0.0
-0.3535353535353535 -1.0 0.0
-0.33333333333333326 -1.0 0.0
-0.31313131313131304 -1.0 0.0
-0.2929292929292928 -1.0 0.0
-0.2727272727272727 -1.0 0.0
-0.2525252525252525 -1.0 0.0
-0.23232323232323226 -1.0 0.0
-0.21212121212121204 -1.0 0.0
-0.19191919191919182 -1.0 0.0
-0.1717171717171716 -1.0 0.0
-0.1515151515151515 -1.0 0.0
-0.13131313131313127 -1.0 0.0
-0.11111111111111105 -1.0 0.0
-0.09090909090909083 -1.0 0.0
-0.07070707070707061 -1.0 0.0
-0.050505050505050386 -1.0 0.0
-0.030303030303030276 -1.0 0.0
-0.010101010101010055 -1.0 0.0
0.010101010101010166 -1.0 0.0
0.030303030303030498 -1.0 0.0
0.05050505050505061 -1.0 0.0
0.07070707070707072 -1.0 0.0
0.09090909090909105 -1.0 0.0
0.11111111111111116 -1.0 0.0
0.1313131313131315 -1.0 0.0
0.1515151515151516 -1.0 0.0
0.1717171717171717 -1.0 0.0
0.19191919191919204 -1.0 0.0
0.21212121212121215 -1.0 0.0
0.2323232323232325 -1.0 0.0
0.2525252525252526 -1.0 0.0
0.27272727272727293 -1.0 0.0
0.29292929292929304 -1.0 0.0
0.31313131313131315 -1.0 0.0
0.3333333333333335 -1.0 0.0
0.3535353535353536 -1.0 0.0
0.3737373737373739 -1.0 0.0
0.39393939393939403 -1.0 0.0
0.41414141414141437 -1.0 0.0
0.4343434343434345 -1.0 0.0
0.4545454545454546 -1.0 0.0
0.4747474747474749 -1.0 0.0
0.49494949494949503 -1.0 0.0
0.5151515151515154 -1.0 0.0
0.5353535353535355 -1.0 0.0
0.5555555555555556 -1.0 0.0
0.5757575757575759 -1.0 0.0
0.595959595959596 -1.0 0.0
0.6161616161616164 -1.0 0.0
0.6363636363636365 -1.0 0.0
0.6565656565656568 -1.0 0.0
0.6767676767676769 -1.0 0.0
0.696969696969697 -1.0 0.0
0.7171717171717173 -1.0 0.0
0.7373737373737375 -1.0 0.0
0.7575757575757578 -1.0 0.0
0.7777777777777779 -1.0 0.0
0.7979797979797982 -1.0 0.0
0.8181818181818183 -1.0 0.0
0.8383838383838385 -1.0 0.0
0.8585858585858588 -1.0 0.0
0.8787878787878789 -1.0 0.0
0.8989898989898992 -1.0 0.0
0.9191919191919193 -1.0 0.0
0.9393939393939394 -1.0 0.0
0.9595959595959598 -1.0 0.0
0.9797979797979799 -1.0 0.0
1.0 -1.0 0.0
-1.0 -0.9797979797979798 0.0
-0.9797979797979798 -0.9797979797979798 0.0
-0.9595959595959596 -0.9797979797979798 0.0
-0.9393939393939394 -0.9797979797979798 0.0
-0.9191919191919192 -0.9797979797979798 0.0
-0.898989898989899 -0.9797979797979798 0.0
-0.8787878787878788 -0.9797979797979798 0.0
-0.8585858585858586 -0.9797979797979798 0.0
-0.8383838383838383 -0.9797979797979798 0.0
-0.8181818181818181 -0.9797979797979798 0.0
-0.797979797979798 -0.9797979797979798 0.0
-0.7777777777777778 -0.9797979797979798 0.0
-0.7575757575757576 -0.9797979797979798 0.0
-0.7373737373737373 -0.9797979797979798 0.0
-0.7171717171717171 -0.9797979797979798 0.0
-0.696969696969697 -0.9797979797979798 0.0
-0.6767676767676767 -0.9797979797979798 0.0
-0.6565656565656566 -0.9797979797979798 0.0
-0.6363636363636364 -0.9797979797979798 0.0
-0.6161616161616161 -0.9797979797979798 0.0
-0.5959595959595959 -0.9797979797979798 0.0
-0.5757575757575757 -0.9797979797979798 0.0
-0.5555555555555556 -0.9797979797979798 0.0
-0.5353535353535352 -0.9797979797979798 0.0
-0.5151515151515151 -0.9797979797979798 0.0
-0.4949494949494949 -0.9797979797979798 0.0
-0.4747474747474747 -0.9797979797979798 0.0
-0.4545454545454545 -0.9797979797979798 0.0
-0.43434343434343425 -0.9797979797979798 0.0
-0.41414141414141414 -0.9797979797979798 0.0
-0.3939393939393939 -0.9797979797979798 0.0
-0.3737373737373737 -0.9797979797979798 0.0
-0.3535353535353535 -0.9797979797979798 0.0
-0.33333333333333326 -0.9797979797979798 0.0
-0.31313131313131304 -0.9797979797979798 0.0
-0.2929292929292928 -0.9797979797979798 0.0
-0.2727272727272727 -0.9797979797979798 0.0
-0.2525252525252525 -0.9797979797979798 0.0
-0.23232323232323226 -0.9797979797979798 0.0
-0.21212121212121204 -0.9797979797979798 0.0
-0.19191919191919182 -0.9797979797979798 0.0
-0.1717171717171716 -0.9797979797979798 0.0
-0.1515151515151515 -0.9797979797979798 0.0
-0.13131313131313127 -0.9797979797979798 0.0
-0.11111111111111105 -0.9797979797979798 0.0
-0.09090909090909083 -0.9797979797979798 0.0
-0.07070707070707061 -0.9797979797979798 0.0
-0.050505050505050386 -0.9797979797979798 0.0
-0.030303030303030276 -0.9797979797979798 0.0
-0.010101010101010055 -0.9797979797979798 0.0
0.010101010101010166 -0.9797979797979798 0.0
0.030303030303030498 -0.9797979797979798 0.0
0.05050505050505061 -0.9797979797979798 0.0
0.07070707070707072 -0.9797979797979798 0.0
0.09090909090909105 -0.9797979797979798 0.0
0.11111111111111116 -0.9797979797979798 0.0
0.1313131313131315 -0.9797979797979798 0.0
0.1515151515151516 -0.9797979797979798 0.0
0.1717171717171717 -0.9797979797979798 0.0
0.19191919191919204 -0.9797979797979798 0.0
0.21212121212121215 -0.9797979797979798 0.0
0.2323232323232325 -0.9797979797979798 0.0
0.2525252525252526 -0.9797979797979798 0.0
0.27272727272727293 -0.9797979797979798 0.0
0.29292929292929304 -0.9797979797979798 0.0
0.31313131313131315 -0.9797979797979798 0.0
0.3333333333333335 -0.9797979797979798 0.0
0.3535353535353536 -0.9797979797979798 0.0
0.3737373737373739 -0.9797979797979798 0.0
0.39393939393939403 -0.9797979797979798 0.0
0.41414141414141437 -0.9797979797979798 0.0
0.4343434343434345 -0.9797979797979798 0.0
0.4545454545454546 -0.9797979797979798 0.0
0.4747474747474749 -0.9797979797979798 0.0
0.49494949494949503 -0.9797979797979798 0.0
0.5151515151515154 -0.9797979797979798 0.0
0.5353535353535355 -0.9797979797979798 0.0
0.5555555555555556 -0.9797979797979798 0.0
0.5757575757575759 -0.9797979797979798 0.0
0.595959595959596 -0.9797979797979798 0.0
0.6161616161616164 -0.9797979797979798 0.0
0.6363636363636365 -0.9797979797979798 0.0
0.6565656565656568 -0.9797979797979798 0.0
0.6767676767676769 -0.9797979797979798 0.0
0.696969696969697 -0.9797979797979798 0.0
0.7171717171717173 -0.9797979797979798 0.0
0.7373737373737375 -0.9797979797979798 0.0
0.7575757575757578 -0.9797979797979798 0.0
0.7777777777777779 -0.9797979797979798 0.0
0.7979797979797982 -0.9797979797979798 0.0
0.8181818181818183 -0.9797979797979798 0.0
0.8383838383838385 -0.9797979797979798 0.0
0.8585858585858588 -0.9797979797979798 0.0
0.8787878787878789 -0.9797979797979798 0.0
0.8989898989898992 -0.9797979797979798 0.0
0.9191919191919193 -0.9797979797979798 0.0
0.9393939393939394 -0.9797979797979798 0.0
0.9595959595959598 -0.9797979797979798 0.0
0.9797979797979799 -0.9797979797979798 0.0
1.0 -0.9797979797979798 0.0
-1.0 -0.9595959595959596 0.0
-0.9797979797979798 -0.9595959595959596 0.0
-0.9595959595959596 -0.9595959595959596 0.0
-0.9393939393939394 -0.9595959595959596 0.0
-0.9191919191919192 -0.9595959595959596 0.0
-0.898989898989899 -0.9595959595959596 0.0
-0.8787878787878788 -0.9595959595959596 0.0
-0.8585858585858586 -0.9595959595959596 0.0
-0.8383838383838383 -0.9595959595959596 0.0
-0.8181818181818181 -0.9595959595959596 0.0
-0.797979797979798 -0.9595959595959596 0.0
-0.7777777777777778 -0.9595959595959596 0.0
-0.7575757575757576 -0.9595959595959596 0.0
-0.7373737373737373 -0.9595959595959596 0.0
-0.7171717171717171 -0.9595959595959596 0.0
-0.696969696969697 -0.9595959595959596 0.0
-0.6767676767676767 -0.9595959595959596 0.0
-0.6565656565656566 -0.9595959595959596 0.0
-0.6363636363636364 -0.9595959595959596 0.0
-0.6161616161616161 -0.9595959595959596 0.0
-0.5959595959595959 -0.9595959595959596 0.0
-0.5757575757575757 -0.9595959595959596 0.0
-0.5555555555555556 -0.9595959595959596 0.0
-0.5353535353535352 -0.9595959595959596 0.0
-0.5151515151515151 -0.9595959595959596 0.0
-0.4949494949494949 -0.9595959595959596 0.0
-0.4747474747474747 -0.9595959595959596 0.0
-0.4545454545454545 -0.9595959595959596 0.0
-0.43434343434343425 -0.9595959595959596 0.0
-0.41414141414141414 -0.9595959595959596 0.0
-0.3939393939393939 -0.9595959595959596 0.0
-0.3737373737373737 -0.9595959595959596 0.0
-0.3535353535353535 -0.9595959595959596 0.0
-0.33333333333333326 -0.9595959595959596 0.0
-0.31313131313131304 -0.9595959595959596 0.0
-0.2929292929292928 -0.9595959595959596 0.0
-0.2727272727272727 -0.9595959595959596 0.0
-0.2525252525252525 -0.9595959595959596 0.0
-0.23232323232323226 -0.9595959595959596 0.0
-0.21212121212121204 -0.9595959595959596 0.0
-0.19191919191919182 -0.9595959595959596 0.0
-0.1717171717171716 -0.9595959595959596 0.0
-0.1515151515151515 -0.9595959595959596 0.0
-0.13131313131313127 -0.9595959595959596 0.0
-0.11111111111111105 -0.9595959595959596 0.0
-0.09090909090909083 -0.9595959595959596 0.0
-0.07070707070707061 -0.9595959595959596 0.0
-0.050505050505050386 -0.9595959595959596 0.0
-0.030303030303030276 -0.9595959595959596 0.0
-0.010101010101010055 -0.9595959595959596 0.0
0.010101010101010166 -0.9595959595959596 0.0
0.030303030303030498 -0.9595959595959596 0.0
0.05050505050505061 -0.9595959595959596 0.0
0.07070707070707072 -0.9595959595959596 0.0
0.09090909090909105 -0.9595959595959596 0.0
0.11111111111111116 -0.9595959595959596 0.0
0.1313131313131315 -0.9595959595959596 0.0
0.1515151515151516 -0.9595959595959596 0.0
0.1717171717171717 -0.9595959595959596 0.0
0.19191919191919204 -0.9595959595959596 0.0
0.21212121212121215 -0.9595959595959596 0.0
[...]
POINT_DATA 10000
SCALARS u float 1
LOOKUP_TABLE default
-9.73045825958252e-05
-0.00010986626148223877
-0.0001221299171447754
-0.00013381242752075195
-0.00014474987983703613
-0.0001548081636428833
-0.00016391277313232422
-0.00017198920249938965
-0.00017899274826049805
-0.00018502771854400635
-0.0001901686191558838
-0.0001944899559020996
-0.00019821524620056152
-0.0002014636993408203
-0.0002043396234512329
-0.0002071857452392578
-0.00021001696586608887
-0.00021307170391082764
-0.00021642446517944336
-0.00022017955780029297
-0.00022433698177337646
-0.0002288222312927246
-0.00023368000984191895
-0.00023880600929260254
-0.00024418532848358154
-0.00024968385696411133
-0.0002551525831222534
-0.0002605170011520386
-0.00026550889015197754
-0.000270158052444458
-0.00027416646480560303
-0.00027745962142944336
-0.00027996301651000977
-0.00028152763843536377
-0.00028218328952789307
-0.00028190016746520996
-0.0002808421850204468
-0.00027899444103240967
-0.00027655065059661865
-0.00027345120906829834
-0.000269964337348938
-0.00026601552963256836
-0.00026166439056396484
-0.00025691092014312744
-0.00025172531604766846
-0.0002460777759552002
-0.00023999810218811035
-0.0002333521842956543
-0.00022624433040618896
-0.0002186596393585205
-0.000210687518119812
-0.00020241737365722656
-0.00019416213035583496
-0.0001858919858932495
-0.00017787516117095947
-0.0001703202724456787
-0.00016333162784576416
-0.00015717744827270508
-0.00015181303024291992
-0.0001474320888519287
-0.0001440197229385376
-0.00014165043830871582
-0.00014030933380126953
-0.0001398921012878418
-0.00014019012451171875
-0.00014127790927886963
-0.00014296174049377441
-0.00014512240886688232
-0.00014761090278625488
-0.000150337815284729
-0.00015316903591156006
-0.00015601515769958496
-0.0001587122678756714
-0.0001612454652786255
-0.00016370415687561035
-0.00016586482524871826
-0.00016775727272033691
-0.0001694709062576294
-0.00017096102237701416
-0.0001723170280456543
-0.00017352402210235596
-0.00017474591732025146
-0.00017601251602172852
-0.00017736852169036865
-0.0001788884401321411
-0.00018055737018585205
-0.000182420015335083
-0.00018455088138580322
-0.00018677115440368652
-0.0001892000436782837
-0.00019171833992004395
-0.0001941770315170288
-0.00019656121730804443
-0.00019881129264831543
-0.0002005249261856079
-0.00020194053649902344
-0.00020270049571990967
-0.000202864408493042
-0.000202178955078125
-0.00020080804824829102
-0.00010107457637786865
-0.00011286139488220215
-0.00012427568435668945
-0.0001351088285446167
-0.00014513731002807617
-0.00015430152416229248
-0.00016260147094726562
-0.00016999244689941406
-0.00017648935317993164
-0.00018206238746643066
-0.00018690526485443115
-0.0001911073923110962
-0.00019474327564239502
-0.00019815564155578613
-0.00020122528076171875
-0.0002043396234512329
-0.00020751357078552246
-0.00021097064018249512
-0.00021472573280334473
-0.00021886825561523438
-0.00022333860397338867
-0.00022824108600616455
-0.0002334117889404297
-0.00023902952671051025
-0.00024466216564178467
-0.0002504587173461914
-0.00025628507137298584
-0.00026191771030426025
-0.00026726722717285156
-0.0002721846103668213
-0.00027652084827423096
-0.0002801567316055298
-0.0002828240394592285
-0.00028455257415771484
-0.00028534233570098877
-0.0002850443124771118
-0.00028383731842041016
-0.0002817213535308838
-0.0002787858247756958
-0.0002751201391220093
-0.000271037220954895
-0.0002663731575012207
-0.0002612769603729248
-0.00025576353073120117
-0.0002498328685760498
-0.0002435445785522461
-0.0002367943525314331
-0.00022958219051361084
-0.0002219676971435547
-0.00021398067474365234
-0.00020566582679748535
-0.00019729137420654297
-0.00018878281116485596
-0.00018049776554107666
-0.00017255544662475586
-0.00016516447067260742
-0.00015835464000701904
-0.00015243887901306152
-0.00014747679233551025
-0.00014355778694152832
-0.00014066696166992188
-0.0001388341188430786
-0.00013799965381622314
-0.00013810396194458008
-0.00013905763626098633
-0.00014066696166992188
-0.00014291703701019287
-0.0001455545425415039
-0.00014857947826385498
-0.00015172362327575684
-0.00015492737293243408
-0.00015807151794433594
-0.00016108155250549316
-0.00016392767429351807
-0.00016640126705169678
-0.00016862154006958008
-0.00017057359218597412
-0.00017218291759490967
-0.0001735687255859375
-0.00017470121383666992
-0.00017568469047546387
-0.00017654895782470703
-0.00017739832401275635
-0.0001783221960067749
-0.00017945468425750732
-0.00018066167831420898
-0.0001821964979171753
-0.00018399953842163086
-0.00018605589866638184
-0.00018832087516784668
-0.00019080936908721924
-0.00019340217113494873
-0.00019592046737670898
-0.00019837915897369385
-0.00020053982734680176
-0.00020232796669006348
-0.00020347535610198975
-0.00020413100719451904
-0.00020401179790496826
-0.00020307302474975586
-0.00010451674461364746
-0.00011555850505828857
-0.00012612342834472656
-0.0001360476016998291
-0.0001452118158340454
-0.00015360116958618164
-0.00016114115715026855
-0.00016786158084869385
-0.00017386674880981445
-0.00017908215522766113
-0.0001836717128753662
-0.00018773972988128662
-0.00019147992134094238
-0.00019493699073791504
-0.00019824504852294922
-0.00020164251327514648
-0.00020512938499450684
-0.000208929181098938
-0.0002130270004272461
-0.00021751224994659424
-0.00022242963314056396
-0.0002276599407196045
-0.0002332627773284912
-0.00023902952671051025
-0.000245019793510437
-0.00025106966495513916
-0.00025710463523864746
-0.00026303529739379883
-0.0002686232328414917
-0.0002738386392593384
-0.00027842819690704346
-0.00028227269649505615
-0.0002851337194442749
-0.0002870708703994751
-0.00028787553310394287
-0.00028751790523529053
-0.0002861618995666504
-0.00028370320796966553
-0.0002804696559906006
-0.0002763420343399048
-0.0002716183662414551
-0.0002662837505340576
-0.0002605617046356201
-0.0002543032169342041
-0.00024771690368652344
-0.00024077296257019043
-0.0002333521842956543
-0.0002256333827972412
-0.00021752715110778809
-0.0002091825008392334
-0.00020059943199157715
-0.00019183754920959473
-0.00018329918384552002
-0.0001748502254486084
-0.00016701221466064453
-0.00015963613986968994
-0.00015307962894439697
-0.00014747679233551025
-0.00014281272888183594
-0.00013925135135650635
-0.0001367330551147461
-0.00013531744480133057
-0.00013503432273864746
-0.00013560056686401367
-0.0001370757818222046
-0.0001391768455505371
-0.00014193356037139893
-0.00014507770538330078
-0.00014850497245788574
-0.00015208125114440918
-0.000155717134475708
-0.0001592189073562622
-0.00016245245933532715
-0.00016549229621887207
-0.0001681596040725708
-0.00017052888870239258
-0.00017243623733520508
-0.00017403066158294678
-0.00017526745796203613
-0.00017623603343963623
-0.00017695128917694092
-0.0001774132251739502
-0.0001779794692993164
-0.00017851591110229492
-0.00017917156219482422
-0.00018003582954406738
-0.00018121302127838135
-0.00018268823623657227
-0.00018450617790222168
-0.00018665194511413574
-0.0001890808343887329
-0.00019168853759765625
-0.00019443035125732422
-0.00019715726375579834
-0.00019969046115875244
-0.00020194053649902344
-0.00020365417003631592
-0.00020484626293182373
-0.00020526349544525146
-0.00020484626293182373
-0.00010757148265838623
-0.00011780858039855957
-0.00012761354446411133
-0.0001366734504699707
-0.00014500319957733154
-0.00015267729759216309
-0.0001595020294189453
-0.0001656562089920044
-0.00017113983631134033
-0.0001760423183441162
-0.00018049776554107666
-0.00018453598022460938
-0.00018827617168426514
-0.00019186735153198242
-0.000195428729057312
-0.0001990795135498047
-0.00020292401313781738
-0.00020700693130493164
-0.0002114623785018921
-0.00021630525588989258
-0.0002215355634689331
-0.00022707879543304443
-0.00023290514945983887
-0.0002389848232269287
-0.0002451688051223755
-0.0002514272928237915
-0.00025767087936401367
-0.00026370584964752197
-0.0002695322036743164
-0.00027492642402648926
-0.00027970969676971436
-0.0002837628126144409
-0.00028680264949798584
-0.0002888590097427368
-0.0002897530794143677
-0.00028939545154571533
-0.0002878904342651367
-0.0002852529287338257
-0.0002815723419189453
-0.0002770423889160156
-0.00027173757553100586
-0.0002658069133758545
-0.00025944411754608154
-0.00025252997875213623
-0.0002452582120895386
-0.00023768842220306396
-0.00022970139980316162
-0.00022144615650177002
-0.00021289288997650146
-0.0002041459083557129
-0.000195235013961792
-0.0001863241195678711
-0.00017756223678588867
-0.00016914308071136475
-0.00016120076179504395
-0.00015391409397125244
-0.00014747679233551025
-0.00014203786849975586
-0.00013765692710876465
-0.000134393572807312
-0.00013227760791778564
-0.0001312941312789917
-0.00013138353824615479
-0.00013244152069091797
-0.00013430416584014893
-0.0001369267702102661
-0.00014008581638336182
-0.0001436471939086914
-0.00014744699001312256
-0.00015142560005187988
-0.0001554340124130249
-0.00015920400619506836
-0.00016276538372039795
-0.0001659989356994629
-0.0001688748598098755
-0.00017133355140686035
-0.00017330050468444824
-0.00017489492893218994
-0.00017608702182769775
-0.00017687678337097168
-0.0001773536205291748
-0.00017765164375305176
-0.0001777857542037964
-0.00017796456813812256
-0.00017824769020080566
-0.0001786649227142334
-0.00017940998077392578
-0.0001805126667022705
-0.00018204748630523682
-0.0001840144395828247
-0.00018638372421264648
-0.00018903613090515137
-0.0001919865608215332
-0.00019499659538269043
-0.0001979619264602661
-0.00020070374011993408
-0.00020301342010498047
-0.0002048015594482422
-0.00020584464073181152
-0.00020615756511688232
-0.00011032819747924805
-0.00011976063251495361
-0.00012868642807006836
-0.00013703107833862305
-0.00014463067054748535
-0.0001515895128250122
-0.00015778839588165283
-0.0001634359359741211
-0.0001685619354248047
-0.00017318129539489746
-0.0001774132251739502
-0.00018142163753509521
-0.00018523633480072021
-0.00018896162509918213
-0.00019271671772003174
-0.00019669532775878906
-0.0002008378505706787
-0.00020524859428405762
-0.00021001696586608887
-0.000215187668800354
-0.00022067129611968994
-0.00022646784782409668
-0.00023248791694641113
-0.00023877620697021484
-0.00024509429931640625
-0.00025144219398498535
-0.00025781989097595215
-0.0002640187740325928
-0.00026991963386535645
-0.0002754777669906616
-0.0002803504467010498
-0.00028458237648010254
-0.00028787553310394287
-0.00029002130031585693
-0.00029090046882629395
-0.0002905726432800293
-0.00028902292251586914
-0.00028611719608306885
-0.0002821385860443115
-0.0002771914005279541
-0.0002714395523071289
-0.0002648681402206421
-0.0002579241991043091
-0.00025038421154022217
-0.00024253129959106445
-0.00023433566093444824
-0.00022582709789276123
-0.00021705031394958496
-0.00020802021026611328
-0.00019888579845428467
-0.00018975138664245605
-0.00018058717250823975
-0.0001716017723083496
-0.0001631230115890503
-0.00015513598918914795
-0.000147894024848938
-0.0001414865255355835
-0.00013621151447296143
-0.00013208389282226562
-0.0001290738582611084
-0.00012725591659545898
-0.00012655556201934814
-0.00012703239917755127
-0.0001284778118133545
-0.0001307278871536255
-0.00013369321823120117
-0.0001372992992401123
-0.0001412034034729004
-0.00014539062976837158
-0.0001496821641921997
-0.00015395879745483398
-0.00015804171562194824
-0.0001618713140487671
-0.00016535818576812744
-0.0001684427261352539
-0.00017105042934417725
-0.00017315149307250977
-0.000174790620803833
-0.00017592310905456543
-0.00017662346363067627
-0.00017696619033813477
-0.00017699599266052246
-0.00017683207988739014
-0.00017665326595306396
-0.0001765042543411255
-0.00017657876014709473
-0.00017684698104858398
-0.00017759203910827637
-0.00017881393432617188
-0.00018046796321868896
-0.0001827031373977661
-0.00018545985221862793
-0.000188484787940979
-0.00019177794456481934
-0.0001952052116394043
-0.00019849836826324463
-0.0002014636993408203
-0.00020395219326019287
-0.00020577013492584229
-0.00020679831504821777
-0.00011268258094787598
-0.00012136995792388916
-0.00012949109077453613
-0.00013709068298339844
-0.0001440197229385376
-0.00015035271644592285
-0.0001560300588607788
-0.00016123056411743164
-0.0001659989356994629
-0.0001704096794128418
-0.0001745671033859253
-0.00017853081226348877
-0.0001824498176574707
-0.00018633902072906494
-0.00019031763076782227
-0.00019450485706329346
-0.00019888579845428467
-0.00020366907119750977
-0.00020873546600341797
-0.00021414458751678467
-0.00021982192993164062
-0.00022585690021514893
-0.00023199617862701416
-0.00023834407329559326
-0.0002447068691253662
-0.00025118887424468994
-0.0002575218677520752
-0.00026373565196990967
-0.0002697110176086426
-0.000275343656539917
-0.0002803504467010498
-0.0002847015857696533
-0.00028802454471588135
-0.00029030442237854004
-0.00029133260250091553
-0.0002910047769546509
-0.0002893507480621338
-0.00028637051582336426
-0.0002821236848831177
-0.0002768486738204956
-0.0002705603837966919
-0.00026351213455200195
-0.0002559870481491089
-0.00024791061878204346
-0.00023943185806274414
-0.00023065507411956787
-0.0002215951681137085
-0.0002124011516571045
-0.00020299851894378662
-0.00019350647926330566
-0.00018393993377685547
-0.0001745671033859253
-0.00016541779041290283
-0.0001567155122756958
-0.00014869868755340576
-0.0001414865255355835
-0.00013522803783416748
-0.0001299828290939331
-0.00012597441673278809
-0.00012323260307312012
-0.00012163817882537842
-0.00012129545211791992
-0.00012205541133880615
-0.00012375414371490479
-0.00012630224227905273
-0.00012962520122528076
-0.0001334547996520996
-0.0001377314329147339
-0.00014218688011169434
-0.00014676153659820557
-0.00015135109424591064
-0.0001556873321533203
-0.00015982985496520996
-0.00016352534294128418
-0.00016686320304870605
-0.00016960501670837402
-0.00017186999320983887
-0.00017361342906951904
-0.0001748204231262207
-0.0001754462718963623
-0.00017569959163665771
-0.00017556548118591309
-0.00017517805099487305
-0.000174596905708313
-0.0001741349697113037
-0.00017374753952026367
-0.0001735687255859375
-0.00017389655113220215
-0.00017473101615905762
-0.000176161527633667
-0.00017817318439483643
-0.00018081068992614746
-0.00018396973609924316
-0.0001875460147857666
-0.0001913309097290039
-0.00019522011280059814
-0.00019884109497070312
-0.00020216405391693115
-0.00020483136177062988
-0.00020663440227508545
-0.00011460483074188232
-0.00012262165546417236
-0.00013005733489990234
-0.0001369863748550415
-0.00014322996139526367
-0.00014901161193847656
-0.00015427172183990479
-0.00015906989574432373
-0.00016359984874725342
-0.00016780197620391846
-0.00017186999320983887
-0.0001758188009262085
-0.00017984211444854736
-0.00018386542797088623
-0.00018808245658874512
-0.00019246339797973633
-0.0001971721649169922
-0.000202178955078125
-0.0002074986696243286
-0.00021308660507202148
-0.00021898746490478516
-0.000225067138671875
-0.00023134052753448486
-0.00023768842220306396
-0.0002440810203552246
-0.00025047361850738525
-0.0002567470073699951
-0.0002629011869430542
-0.00026880204677581787
-0.00027441978454589844
-0.0002795308828353882
-0.0002839416265487671
-0.00028745830059051514
-0.0002898871898651123
-0.00029098987579345703
-0.0002907216548919678
-0.00028908252716064453
-0.000285908579826355
-0.0002814978361129761
-0.00027586519718170166
-0.0002691596746444702
-0.00026175379753112793
-0.00025363266468048096
-0.00024500489234924316
-0.00023601949214935303
-0.00022670626640319824
-0.0002171248197555542
-0.00020742416381835938
-0.00019763410091400146
-0.00018775463104248047
-0.00017786026000976562
-0.0001681894063949585
-0.00015886127948760986
-0.0001500546932220459
-0.00014194846153259277
-0.00013464689254760742
-0.0001284182071685791
-0.0001232624053955078
-0.00011946260929107666
-0.00011691451072692871
-0.00011552870273590088
-0.0001153796911239624
-0.00011636316776275635
-0.00011835992336273193
-0.0001211315393447876
-0.0001246929168701172
-0.00012880563735961914
-0.00013321638107299805
-0.0001379251480102539
-0.00014269351959228516
-0.0001474618911743164
-0.00015197694301605225
-0.00015635788440704346
-0.00016026198863983154
-0.00016382336616516113
-0.00016680359840393066
-0.00016930699348449707
-0.00017115473747253418
-0.00017248094081878662
-0.0001731961965560913
-0.00017343461513519287
-0.00017324090003967285
-0.0001726895570755005
-0.0001719146966934204
-0.00017102062702178955
-0.00017021596431732178
-0.00016966462135314941
-0.00016956031322479248
-0.00016994774341583252
-0.0001710057258605957
-0.00017276406288146973
-0.00017523765563964844
-0.00017842650413513184
-0.00018218159675598145
-0.00018636882305145264
-0.00019074976444244385
-0.00019519031047821045
-0.0001992732286453247
-0.00020284950733184814
-0.0002056807279586792
-0.00011622905731201172
-0.00012356042861938477
-0.0001303553581237793
-0.000136643648147583
-0.00014241039752960205
-0.00014768540859222412
-0.00015251338481903076
-0.00015701353549957275
-0.00016129016876220703
-0.0001653730869293213
-0.000169411301612854
-0.00017336010932922363
-0.00017742812633514404
-0.00018171966075897217
-0.00018611550331115723
-0.00019071996212005615
-0.00019563734531402588
-0.0002008676528930664
-0.00020632147789001465
-0.0002120882272720337
-0.00021804869174957275
-0.000224187970161438
-0.00023043155670166016
-0.00023673474788665771
-0.00024299323558807373
-0.0002492368221282959
-0.00025531649589538574
-0.0002613663673400879
-0.0002671927213668823
-0.00027273595333099365
-0.00027786195278167725
-0.00028233230113983154
-0.0002860128879547119
-0.0002885162830352783
-0.0002898275852203369
-0.00028972327709198
-0.00028802454471588135
-0.0002848803997039795
-0.00028027594089508057
-0.00027441978454589844
-0.0002674311399459839
-0.0002594888210296631
-0.00025087594985961914
-0.00024172663688659668
-0.00023218989372253418
-0.00022237002849578857
-0.0002123415470123291
-0.00020216405391693115
-0.00019186735153198242
-0.0001816004514694214
-0.00017146766185760498
-0.0001614689826965332
-0.00015197694301605225
-0.00014296174049377441
-0.0001347064971923828
-0.0001273900270462036
-0.00012119114398956299
-0.00011616945266723633
-0.00011245906352996826
-0.00011004507541656494
-0.00010892748832702637
-0.00010892748832702637
-0.00011011958122253418
-0.00011231005191802979
-0.00011529028415679932
-0.00011897087097167969
-0.00012311339378356934
-0.00012768805027008057
-0.0001324862241744995
-0.00013731420040130615
-0.00014218688011169434
-0.0001468956470489502
-0.00015138089656829834
-0.00015550851821899414
-0.0001592189073562622
-0.000162467360496521
-0.00016516447067260742
-0.0001672506332397461
-0.00016880035400390625
-0.0001696944236755371
-0.0001700371503829956
-0.00016988813877105713
-0.00016927719116210938
-0.00016829371452331543
-0.0001671910285949707
-0.00016610324382781982
-0.00016517937183380127
-0.00016456842422485352
-0.00016453862190246582
-0.00016517937183380127
-0.00016655027866363525
-0.0001688748598098755
-0.00017195940017700195
-0.00017577409744262695
-0.00018027424812316895
-0.00018520653247833252
-0.00019027292728424072
-0.000195235013961792
-0.00019977986812591553
-0.00020363926887512207
-0.00011749565601348877
-0.00012417137622833252
-0.00013040006160736084
-0.0001361370086669922
-0.00014138221740722656
-0.00014628469944000244
-0.00015081465244293213
-0.00015504658222198486
-0.00015915930271148682
-0.000163152813911438
-0.00016710162162780762
-0.00017116963863372803
-0.00017534196376800537
-0.00017975270748138428
-0.0001843273639678955
-0.00018918514251708984
-0.00019425153732299805
-0.0001996457576751709
-0.00020523369312286377
-0.0002110600471496582
-0.0002170354127883911
-0.00022314488887786865
-0.00022931396961212158
-0.00023536384105682373
-0.00024138391017913818
-0.00024740397930145264
-0.00025328993797302246
-0.0002590864896774292
-0.0002647489309310913
-0.00027020275592803955
-0.0002752840518951416
-0.000279843807220459
-0.000283658504486084
-0.00028631091117858887
-0.00028787553310394287
-0.000287860631942749
-0.000286296010017395
-0.0002831369638442993
-0.0002785325050354004
-0.00027245283126831055
-0.0002650916576385498
-0.00025682151317596436
-0.0002477914094924927
-0.00023815035820007324