# vtk DataFile Version 3.0
2D PINN Solution
ASCII
DATASET STRUCTURED_GRID
DIMENSIONS 100 100 1
POINTS 10000 float
-1.0 -1.0 0.0
-0.9797979797979798 -1.0 0.0
-0.9595959595959596 -1.0 0.0
-0.9393939393939394 -1.0 0.0
-0.9191919191919192 -1.0 0.0
-0.898989898989899 -1.0 0.0
-0.8787878787878788 -1.0 0.0
-0.8585858585858586 -1.0 0.0
-0.8383838383838383 -1.0 0.0
-0.8181818181818181 -1.0 0.0
-0.797979797979798 -1.0 0.0
-0.7777777777777778 -1.0 0.0
-0.7575757575757576 -1.0 0.0
-0.7373737373737373 -1.0 0.0
-0.7171717171717171 -1.0 0.0
-0.696969696969697 -1.0 0.0
-0.6767676767676767 -1.0 0.0
-0.6565656565656566 -1.0 0.0
-0.6363636363636364 -1.0 0.0
-0.6161616161616161 -1.0 0.0
-0.5959595959595959 -1.0 0.0
-0.5757575757575757 -1.0 0.0
-0.5555555555555556 -1.0 0.0
-0.5353535353535352 -1.0 0.0
-0.5151515151515151 -1.0 0.0
-0.4949494949494949 -1.0 0.0
-0.4747474747474747 -1.0 0.0
-0.4545454545454545 -1.0 0.0
-0.43434343434343425 -1.0 0.0
-0.41414141414141414 -1.0 0.0
-0.3939393939393939 -1.0 0.0
-0.3737373737373737 -1.0 0.0
-0.3535353535353535 -1.0 0.0
-0.33333333333333326 -1.0 0.0
-0.31313131313131304 -1.0 0.0
-0.2929292929292928 -1.0 0.0
-0.2727272727272727 -1.0 0.0
-0.2525252525252525 -1.0 0.0
-0.23232323232323226 -1.0 0.0
-0.21212121212121204 -1.0 0.0
-0.19191919191919182 -1.0 0.0
-0.1717171717171716 -1.0 0.0
-0.1515151515151515 -1.0 0.0
-0.13131313131313127 -1.0 0.0
-0.11111111111111105 -1.0 0.0
-0.09090909090909083 -1.0 0.0
-0.07070707070707061 -1.0 0.0
-0.050505050505050386 -1.0 0.0
-0.030303030303030276 -1.0 0.0
-0.010101010101010055 -1.0 0.0
0.010101010101010166 -1.0 0.0
0.030303030303030498 -1.0 0.0
0.05050505050505061 -1.0 0.0
0.07070707070707072 -1.0 0.0
0.09090909090909105 -1.0 0.0
0.11111111111111116 -1.0 0.0
0.1313131313131315 -1.0 0.0
0.1515151515151516 -1.0 0.0
0.1717171717171717 -1.0 0.0
0.19191919191919204 -1.0 0.0
0.21212121212121215 -1.0 0.0
0.2323232323232325 -1.0 0.0
0.2525252525252526 -1.0 0.0
0.27272727272727293 -1.0 0.0
0.29292929292929304 -1.0 0.0
0.31313131313131315 -1.0 0.0
0.3333333333333335 -1.0 0.0
0.3535353535353536 -1.0 0.0
0.3737373737373739 -1.0 0.0
0.39393939393939403 -1.0 0.0
0.41414141414141437 -1.0 0.0
0.4343434343434345 -1.0 0.0
0.4545454545454546 -1.0 0.0
0.4747474747474749 -1.0 0.0
0.49494949494949503 -1.0 0.0
0.5151515151515154 -1.0 0.0
0.5353535353535355 -1.0 0.0
0.5555555555555556 -1.0 0.0
0.5757575757575759 -1.0 0.0
0.595959595959596 -1.0 0.0
0.6161616161616164 -1.0 0.0
0.6363636363636365 -1.0 0.0
0.6565656565656568 -1.0 0.0
0.6767676767676769 -1.0 0.0
0.696969696969697 -1.0 0.0
0.7171717171717173 -1.0 0.0
0.7373737373737375 -1.0 0.0
0.7575757575757578 -1.0 0.0
0.7777777777777779 -1.0 0.0
0.7979797979797982 -1.0 0.0
0.8181818181818183 -1.0 0.0
0.8383838383838385 -1.0 0.0
0.8585858585858588 -1.0 0.0
0.8787878787878789 -1.0 0.0
0.8989898989898992 -1.0 0.0
0.9191919191919193 -1.0 0.0
0.9393939393939394 -1.0 0.0
0.9595959595959598 -1.0 0.0
0.9797979797979799 -1.0 0.0
1.0 -1.0 0.0
-1.0 -0.9797979797979798 0.0
-0.9797979797979798 -0.9797979797979798 0.0
-0.9595959595959596 -0.9797979797979798 0.0
-0.9393939393939394 -0.9797979797979798 0.0
-0.9191919191919192 -0.9797979797979798 0.0
-0.898989898989899 -0.9797979797979798 0.0
-0.8787878787878788 -0.9797979797979798 0.0
-0.8585858585858586 -0.9797979797979798 0.0
-0.8383838383838383 -0.9797979797979798 0.0
-0.8181818181818181 -0.9797979797979798 0.0
-0.797979797979798 -0.9797979797979798 0.0
-0.7777777777777778 -0.9797979797979798 0.0
-0.7575757575757576 -0.9797979797979798 0.0
-0.7373737373737373 -0.9797979797979798 0.0
-0.7171717171717171 -0.9797979797979798 0.0
-0.696969696969697 -0.9797979797979798 0.0
-0.6767676767676767 -0.9797979797979798 0.0
-0.6565656565656566 -0.9797979797979798 0.0
-0.6363636363636364 -0.9797979797979798 0.0
-0.6161616161616161 -0.9797979797979798 0.0
-0.5959595959595959 -0.9797979797979798 0.0
-0.5757575757575757 -0.9797979797979798 0.0
-0.5555555555555556 -0.9797979797979798 0.0
-0.5353535353535352 -0.9797979797979798 0.0
-0.5151515151515151 -0.9797979797979798 0.0
-0.4949494949494949 -0.9797979797979798 0.0
-0.4747474747474747 -0.9797979797979798 0.0
-0.4545454545454545 -0.9797979797979798 0.0
-0.43434343434343425 -0.9797979797979798 0.0
-0.41414141414141414 -0.9797979797979798 0.0
-0.3939393939393939 -0.9797979797979798 0.0
-0.3737373737373737 -0.9797979797979798 0.0
-0.3535353535353535 -0.9797979797979798 0.0
-0.33333333333333326 -0.9797979797979798 0.0
-0.31313131313131304 -0.9797979797979798 0.0
-0.2929292929292928 -0.9797979797979798 0.0
-0.2727272727272727 -0.9797979797979798 0.0
-0.2525252525252525 -0.9797979797979798 0.0
-0.23232323232323226 -0.9797979797979798 0.0
-0.21212121212121204 -0.9797979797979798 0.0
-0.19191919191919182 -0.9797979797979798 0.0
-0.1717171717171716 -0.9797979797979798 0.0
-0.1515151515151515 -0.9797979797979798 0.0
-0.13131313131313127 -0.9797979797979798 0.0
-0.11111111111111105 -0.9797979797979798 0.0
-0.09090909090909083 -0.9797979797979798 0.0
-0.07070707070707061 -0.9797979797979798 0.0
-0.050505050505050386 -0.9797979797979798 0.0
-0.030303030303030276 -0.9797979797979798 0.0
-0.010101010101010055 -0.9797979797979798 0.0
0.010101010101010166 -0.9797979797979798 0.0
0.030303030303030498 -0.9797979797979798 0.0
0.05050505050505061 -0.9797979797979798 0.0
0.07070707070707072 -0.9797979797979798 0.0
0.09090909090909105 -0.9797979797979798 0.0
0.11111111111111116 -0.9797979797979798 0.0
0.1313131313131315 -0.9797979797979798 0.0
0.1515151515151516 -0.9797979797979798 0.0
0.1717171717171717 -0.9797979797979798 0.0
0.19191919191919204 -0.9797979797979798 0.0
0.21212121212121215 -0.9797979797979798 0.0
0.2323232323232325 -0.9797979797979798 0.0
0.2525252525252526 -0.9797979797979798 0.0
0.27272727272727293 -0.9797979797979798 0.0
0.29292929292929304 -0.9797979797979798 0.0
0.31313131313131315 -0.9797979797979798 0.0
0.3333333333333335 -0.9797979797979798 0.0
0.3535353535353536 -0.9797979797979798 0.0
0.3737373737373739 -0.9797979797979798 0.0
0.39393939393939403 -0.9797979797979798 0.0
0.41414141414141437 -0.9797979797979798 0.0
0.4343434343434345 -0.9797979797979798 0.0
0.4545454545454546 -0.9797979797979798 0.0
0.4747474747474749 -0.9797979797979798 0.0
0.49494949494949503 -0.9797979797979798 0.0
0.5151515151515154 -0.9797979797979798 0.0
0.5353535353535355 -0.9797979797979798 0.0
0.5555555555555556 -0.9797979797979798 0.0
0.5757575757575759 -0.9797979797979798 0.0
0.595959595959596 -0.9797979797979798 0.0
0.6161616161616164 -0.9797979797979798 0.0
0.6363636363636365 -0.9797979797979798 0.0
0.6565656565656568 -0.9797979797979798 0.0
0.6767676767676769 -0.9797979797979798 0.0
0.696969696969697 -0.9797979797979798 0.0
0.7171717171717173 -0.9797979797979798 0.0
0.7373737373737375 -0.9797979797979798 0.0
0.7575757575757578 -0.9797979797979798 0.0
0.7777777777777779 -0.9797979797979798 0.0
0.7979797979797982 -0.9797979797979798 0.0
0.8181818181818183 -0.9797979797979798 0.0
0.8383838383838385 -0.9797979797979798 0.0
0.8585858585858588 -0.9797979797979798 0.0
0.8787878787878789 -0.9797979797979798 0.0
0.8989898989898992 -0.9797979797979798 0.0
0.9191919191919193 -0.9797979797979798 0.0
0.9393939393939394 -0.9797979797979798 0.0
0.9595959595959598 -0.9797979797979798 0.0
0.9797979797979799 -0.9797979797979798 0.0
1.0 -0.9797979797979798 0.0
-1.0 -0.9595959595959596 0.0
-0.9797979797979798 -0.9595959595959596 0.0
-0.9595959595959596 -0.9595959595959596 0.0
-0.9393939393939394 -0.9595959595959596 0.0
-0.9191919191919192 -0.9595959595959596 0.0
-0.898989898989899 -0.9595959595959596 0.0
-0.8787878787878788 -0.9595959595959596 0.0
-0.8585858585858586 -0.9595959595959596 0.0
-0.8383838383838383 -0.9595959595959596 0.0
-0.8181818181818181 -0.9595959595959596 0.0
-0.797979797979798 -0.9595959595959596 0.0
-0.7777777777777778 -0.9595959595959596 0.0
-0.7575757575757576 -0.9595959595959596 0.0
-0.7373737373737373 -0.9595959595959596 0.0
-0.7171717171717171 -0.9595959595959596 0.0
-0.696969696969697 -0.9595959595959596 0.0
-0.6767676767676767 -0.9595959595959596 0.0
-0.6565656565656566 -0.9595959595959596 0.0
-0.6363636363636364 -0.9595959595959596 0.0
-0.6161616161616161 -0.9595959595959596 0.0
-0.5959595959595959 -0.9595959595959596 0.0
-0.5757575757575757 -0.9595959595959596 0.0
-0.5555555555555556 -0.9595959595959596 0.0
-0.5353535353535352 -0.9595959595959596 0.0
-0.5151515151515151 -0.9595959595959596 0.0
-0.4949494949494949 -0.9595959595959596 0.0
-0.4747474747474747 -0.9595959595959596 0.0
-0.4545454545454545 -0.9595959595959596 0.0
-0.43434343434343425 -0.9595959595959596 0.0
-0.41414141414141414 -0.9595959595959596 0.0
-0.3939393939393939 -0.9595959595959596 0.0
-0.3737373737373737 -0.9595959595959596 0.0
-0.3535353535353535 -0.9595959595959596 0.0
-0.33333333333333326 -0.9595959595959596 0.0
-0.31313131313131304 -0.9595959595959596 0.0
-0.2929292929292928 -0.9595959595959596 0.0
-0.2727272727272727 -0.9595959595959596 0.0
-0.2525252525252525 -0.9595959595959596 0.0
-0.23232323232323226 -0.9595959595959596 0.0
-0.21212121212121204 -0.9595959595959596 0.0
-0.19191919191919182 -0.9595959595959596 0.0
-0.1717171717171716 -0.9595959595959596 0.0
-0.1515151515151515 -0.9595959595959596 0.0
-0.13131313131313127 -0.9595959595959596 0.0
-0.11111111111111105 -0.9595959595959596 0.0
-0.09090909090909083 -0.9595959595959596 0.0
-0.07070707070707061 -0.9595959595959596 0.0
-0.050505050505050386 -0.9595959595959596 0.0
-0.030303030303030276 -0.9595959595959596 0.0
-0.010101010101010055 -0.9595959595959596 0.0
0.010101010101010166 -0.9595959595959596 0.0
0.030303030303030498 -0.9595959595959596 0.0
0.05050505050505061 -0.9595959595959596 0.0
0.07070707070707072 -0.9595959595959596 0.0
0.09090909090909105 -0.9595959595959596 0.0
0.11111111111111116 -0.9595959595959596 0.0
0.1313131313131315 -0.9595959595959596 0.0
0.1515151515151516 -0.9595959595959596 0.0
0.1717171717171717 -0.9595959595959596 0.0
0.19191919191919204 -0.9595959595959596 0.0
0.21212121212121215 -0.9595959595959596 0.0
[...]
POINT_DATA 10000
SCALARS u float 1
LOOKUP_TABLE default
-0.00011903047561645508
-0.00013153254985809326
-0.00014382600784301758
-0.00015561282634735107
-0.00016668438911437988
-0.0001769810914993286
-0.0001863241195678711
-0.00019459426403045654
-0.00020174682140350342
-0.00020773708820343018
-0.00021260976791381836
-0.000216558575630188
-0.0002196282148361206
-0.0002219676971435547
-0.00022391974925994873
-0.000225752592086792
-0.00022751092910766602
-0.0002294480800628662
-0.00023162364959716797
-0.00023417174816131592
-0.0002370774745941162
-0.00024023652076721191
-0.00024358928203582764
-0.0002471059560775757
-0.00025053322315216064
-0.00025378167629241943
-0.0002566128969192505
-0.0002590864896774292
-0.00026100873947143555
-0.00026234984397888184
-0.0002630949020385742
-0.0002633333206176758
-0.0002630949020385742
-0.0002624392509460449
-0.00026151537895202637
-0.00026032328605651855
-0.0002588033676147461
-0.00025700032711029053
-0.00025488436222076416
-0.00025235116481781006
-0.0002492368221282959
-0.0002455413341522217
-0.00024107098579406738
-0.000235825777053833
-0.00022973120212554932
-0.00022289156913757324
-0.00021535158157348633
-0.0002072155475616455
-0.00019875168800354004
-0.0001901388168334961
-0.00018168985843658447
-0.00017352402210235596
-0.00016605854034423828
-0.00015939772129058838
-0.00015367567539215088
-0.0001491159200668335
-0.00014574825763702393
-0.00014351308345794678
-0.00014241039752960205
-0.00014244019985198975
-0.0001434534788131714
-0.00014537572860717773
-0.00014796853065490723
-0.00015120208263397217
-0.00015479326248168945
-0.0001585930585861206
-0.00016255676746368408
-0.00016647577285766602
-0.00017027556896209717
-0.00017379224300384521
-0.0001769810914993286
-0.00017979741096496582
-0.00018224120140075684
-0.00018419325351715088
-0.0001856982707977295
-0.00018675625324249268
-0.00018745660781860352
-0.000187799334526062
-0.00018768012523651123
-0.00018738210201263428
-0.00018684566020965576
-0.00018613040447235107
-0.0001854151487350464
-0.0001846998929977417
-0.00018416345119476318
-0.00018377602100372314
-0.00018365681171417236
-0.00018392503261566162
-0.00018456578254699707
-0.0001856088638305664
-0.00018706917762756348
-0.00018891692161560059
-0.0001910179853439331
-0.0001933574676513672
-0.00019571185111999512
-0.00019814074039459229
-0.00020025670528411865
-0.00020219385623931885
-0.0002035200595855713
-0.00020426511764526367
-0.00012452900409698486
-0.00013643503189086914
-0.00014796853065490723
-0.00015877187252044678
-0.00016893446445465088
-0.00017821788787841797
-0.00018662214279174805
-0.00019404292106628418
-0.00020037591457366943
-0.0002056807279586792
-0.00021003186702728271
-0.00021351873874664307
-0.00021626055240631104
-0.00021848082542419434
-0.00022032856941223145
-0.00022210180759429932
-0.00022397935390472412
-0.0002260953187942505
-0.0002285987138748169
-0.0002314746379852295
-0.00023478269577026367
-0.00023846328258514404
-0.00024241209030151367
-0.0002465248107910156
-0.0002506077289581299
-0.0002545863389968872
-0.0002581477165222168
-0.0002613663673400879
-0.0002638697624206543
-0.0002657771110534668
-0.00026702880859375
-0.00026755034923553467
-0.0002675354480743408
-0.0002668797969818115
-0.0002657175064086914
-0.00026416778564453125
-0.0002621114253997803
-0.00025969743728637695
-0.0002568364143371582
-0.0002535134553909302
-0.00024944543838500977
-0.000244826078414917
-0.00023943185806274414
-0.0002333223819732666
-0.00022627413272857666
-0.00021860003471374512
-0.00021025538444519043
-0.00020134449005126953
-0.00019218027591705322
-0.00018297135829925537
-0.00017404556274414062
-0.00016547739505767822
-0.0001576542854309082
-0.00015076994895935059
-0.0001449882984161377
-0.00014039874076843262
-0.00013703107833862305
-0.00013500452041625977
-0.00013421475887298584
-0.00013455748558044434
-0.00013591349124908447
-0.00013816356658935547
-0.0001412034034729004
-0.00014483928680419922
-0.00014886260032653809
-0.00015309453010559082
-0.00015749037265777588
-0.00016179680824279785
-0.0001659095287322998
-0.00016973912715911865
-0.0001732558012008667
-0.00017629563808441162
-0.00017884373664855957
-0.00018098950386047363
-0.0001825392246246338
-0.00018359720706939697
-0.00018426775932312012
-0.00018447637557983398
-0.00018428266048431396
-0.0001837611198425293
-0.00018295645713806152
-0.0001819133758544922
-0.00018087029457092285
-0.00017976760864257812
-0.00017876923084259033
-0.0001779496669769287
-0.00017748773097991943
-0.0001773536205291748
-0.00017774105072021484
-0.000178605318069458
-0.00017990171909332275
-0.00018180906772613525
-0.00018414855003356934
-0.00018680095672607422
-0.0001897364854812622
-0.00019271671772003174
-0.00019571185111999512
-0.00019840896129608154
-0.00020076334476470947
-0.00020253658294677734
-0.00012969970703125
-0.00014081597328186035
-0.00015147030353546143
-0.0001614391803741455
-0.00017057359218597412
-0.0001789182424545288
-0.00018642842769622803
-0.0001930445432662964
-0.0001986771821975708
-0.0002034604549407959
-0.00020734965801239014
-0.00021050870418548584
-0.000212937593460083
-0.00021499395370483398
-0.00021685659885406494
-0.0002186894416809082
-0.0002206861972808838
-0.00022298097610473633
-0.00022584199905395508
-0.00022901594638824463
-0.00023278594017028809
-0.00023692846298217773
-0.00024136900901794434
-0.00024609267711639404
-0.00025075674057006836
-0.00025528669357299805
-0.0002595186233520508
-0.00026331841945648193
-0.0002664625644683838
-0.0002688765525817871
-0.0002705007791519165
-0.0002712458372116089
-0.0002713203430175781
-0.00027060508728027344
-0.0002692192792892456
-0.0002672821283340454
-0.00026473402976989746
-0.00026169419288635254
-0.00025807321071624756
-0.0002539008855819702
-0.0002490133047103882
-0.00024358928203582764
-0.00023734569549560547
-0.00023031234741210938
-0.0002225339412689209
-0.00021405518054962158
-0.00020490586757659912
-0.00019536912441253662
-0.00018559396266937256
-0.0001758486032485962
-0.00016638636589050293
-0.00015752017498016357
-0.0001494288444519043
-0.00014232099056243896
-0.00013643503189086914
-0.00013180077075958252
-0.00012858211994171143
-0.00012668967247009277
-0.00012603402137756348
-0.00012661516666412354
-0.00012825429439544678
-0.00013086199760437012
-0.00013424456119537354
-0.00013817846775054932
-0.00014260411262512207
-0.000147208571434021
-0.0001519918441772461
-0.0001566559076309204
-0.0001611262559890747
-0.00016526877880096436
-0.0001690387725830078
-0.0001722574234008789
-0.00017502903938293457
-0.00017729401588439941
-0.00017899274826049805
-0.00018009543418884277
-0.00018073618412017822
-0.00018087029457092285
-0.00018055737018585205
-0.00017984211444854736
-0.00017879903316497803
-0.00017754733562469482
-0.00017611682415008545
-0.00017464160919189453
-0.0001731961965560913
-0.0001719444990158081
-0.00017105042934417725
-0.0001704692840576172
-0.00017045438289642334
-0.00017099082469940186
-0.00017210841178894043
-0.0001738816499710083
-0.00017626583576202393
-0.00017917156219482422
-0.00018252432346343994
-0.00018613040447235107
-0.00018984079360961914
-0.00019344687461853027
-0.0001967698335647583
-0.00019969046115875244
-0.00013428926467895508
-0.0001447051763534546
-0.00015448033809661865
-0.00016349554061889648
-0.00017179548740386963
-0.00017920136451721191
-0.00018593668937683105
-0.00019180774688720703
-0.00019681453704833984
-0.00020104646682739258
-0.00020459294319152832
-0.00020739436149597168
-0.00020970404148101807
-0.0002116858959197998
-0.0002135634422302246
-0.0002154707908630371
-0.00021764636039733887
-0.00022020936012268066
-0.00022324919700622559
-0.00022687017917633057
-0.00023099780082702637
-0.00023558735847473145
-0.00024056434631347656
-0.000245705246925354
-0.0002509206533432007
-0.00025600194931030273
-0.00026081502437591553
-0.00026510655879974365
-0.0002686828374862671
-0.0002714991569519043
-0.0002734959125518799
-0.0002744346857070923
-0.00027452409267425537
-0.0002737194299697876
-0.0002720952033996582
-0.00026969611644744873
-0.0002666562795639038
-0.0002629607915878296
-0.0002586543560028076
-0.0002537369728088379
-0.000248149037361145
-0.0002418607473373413
-0.00023478269577026367
-0.0002270042896270752
-0.00021851062774658203
-0.00020934641361236572
-0.0001995861530303955
-0.0001893937587738037
-0.00017905235290527344
-0.00016885995864868164
-0.0001589357852935791
-0.00014972686767578125
-0.00014138221740722656
-0.00013412535190582275
-0.0001281052827835083
-0.00012347102165222168
-0.00012023746967315674
-0.00011846423149108887
-0.0001179724931716919
-0.00011873245239257812
-0.00012062489986419678
-0.00012345612049102783
-0.00012701749801635742
-0.0001313537359237671
-0.00013597309589385986
-0.0001408606767654419
-0.0001459568738937378
-0.00015094876289367676
-0.000155717134475708
-0.00016017258167266846
-0.00016418099403381348
-0.00016774237155914307
-0.00017073750495910645
-0.00017315149307250977
-0.00017493963241577148
-0.0001761913299560547
-0.00017683207988739014
-0.00017699599266052246
-0.00017653405666351318
-0.00017571449279785156
-0.0001745074987411499
-0.00017298758029937744
-0.0001712590456008911
-0.00016936659812927246
-0.00016754865646362305
-0.00016577541828155518
-0.00016438961029052734
-0.00016333162784576416
-0.0001628398895263672
-0.00016291439533233643
-0.00016373395919799805
-0.0001652836799621582
-0.00016763806343078613
-0.00017061829566955566
-0.0001742541790008545
-0.0001783519983291626
-0.00018271803855895996
-0.00018721818923950195
-0.00019158422946929932
-0.00019562244415283203
-0.00013846158981323242
-0.00014804303646087646
-0.0001569688320159912
-0.00016510486602783203
-0.00017251074314117432
-0.0001792311668395996
-0.00018516182899475098
-0.0001903921365737915
-0.00019484758377075195
-0.0001987069845199585
-0.00020191073417663574
-0.0002044886350631714
-0.00020672380924224854
-0.00020867586135864258
-0.00021055340766906738
-0.00021260976791381836
-0.00021497905254364014
-0.0002177804708480835
-0.00022108852863311768
-0.0002250075340270996
-0.0002294778823852539
-0.00023448467254638672
-0.00023984909057617188
-0.0002454817295074463
-0.0002511441707611084
-0.0002567172050476074
-0.00026197731494903564
-0.0002666860818862915
-0.0002706795930862427
-0.0002738684415817261
-0.00027598440647125244
-0.00027708709239959717
-0.0002772212028503418
-0.000276222825050354
-0.00027430057525634766
-0.0002715885639190674
-0.00026801228523254395
-0.00026366114616394043
-0.00025863945484161377
-0.0002530217170715332
-0.00024674832820892334
-0.00023965537548065186
-0.00023189187049865723
-0.00022348761558532715
-0.00021429359912872314
-0.0002044886350631714
-0.00019411742687225342
-0.0001834779977798462
-0.0001726299524307251
-0.00016202032566070557
-0.00015172362327575684
-0.00014226138591766357
-0.00013363361358642578
-0.0001261979341506958
-0.00012011826038360596
-0.00011549890041351318
-0.00011226534843444824
-0.00011050701141357422
-0.00011011958122253418
-0.00011095404624938965
-0.00011301040649414062
-0.00011594593524932861
-0.00011973083019256592
-0.00012408196926116943
-0.00012899935245513916
-0.0001341402530670166
-0.00013934075832366943
-0.0001445859670639038
-0.00014962255954742432
-0.00015433132648468018
-0.00015860795974731445
-0.0001624077558517456
-0.00016564130783081055
-0.00016826391220092773
-0.00017027556896209717
-0.00017158687114715576
-0.00017239153385162354
-0.00017255544662475586
-0.00017212331295013428
-0.00017122924327850342
-0.00016988813877105713
-0.0001681894063949585
-0.00016620755195617676
-0.0001640021800994873
-0.0001617521047592163
-0.00015963613986968994
-0.00015763938426971436
-0.0001561194658279419
-0.0001550614833831787
-0.00015464425086975098
-0.00015500187873840332
-0.00015622377395629883
-0.00015829503536224365
-0.00016127526760101318
-0.0001650601625442505
-0.00016953051090240479
-0.00017446279525756836
-0.00017978250980377197
-0.00018513202667236328
-0.00019024312496185303
-0.0001420527696609497
-0.00015082955360412598
-0.00015895068645477295
-0.000166282057762146
-0.00017289817333221436
-0.00017881393432617188
-0.0001841336488723755
-0.00018887221813201904
-0.00019288063049316406
-0.00019638240337371826
-0.0001992732286453247
-0.0002017766237258911
-0.00020395219326019287
-0.00020594894886016846
-0.0002079010009765625
-0.00021010637283325195
-0.0002126246690750122
-0.00021564960479736328
-0.00021922588348388672
-0.000223502516746521
-0.0002282857894897461
-0.0002336055040359497
-0.0002393871545791626
-0.00024537742137908936
-0.00025141239166259766
-0.0002573728561401367
-0.00026303529739379883
-0.0002681314945220947
-0.00027242302894592285
-0.0002758204936981201
-0.0002781599760055542
-0.0002793818712234497
-0.0002793818712234497
-0.0002782195806503296
-0.000276029109954834
-0.0002728104591369629
-0.00026872754096984863
-0.00026382505893707275
-0.0002581477165222168
-0.00025184452533721924
-0.000244826078414917
-0.00023715198040008545
-0.00022871792316436768
-0.00021958351135253906
-0.00020992755889892578
-0.0001995861530303955
-0.00018875300884246826
-0.00017760694026947021
-0.00016640126705169678
-0.00015535950660705566
-0.00014480948448181152
-0.00013506412506103516
-0.00012624263763427734
-0.00011867284774780273
-0.00011257827281951904
-0.00010783970355987549
-0.00010460615158081055
-0.00010287761688232422
-0.00010249018669128418
-0.00010341405868530273
-0.00010536611080169678
-0.00010839104652404785
-0.000112190842628479
-0.00011661648750305176
-0.00012156367301940918
-0.00012671947479248047
-0.00013209879398345947
-0.00013741850852966309
-0.00014261901378631592
-0.00014753639698028564
-0.00015208125114440918
-0.00015610456466674805
-0.0001595914363861084
-0.0001624971628189087
-0.0001646876335144043
-0.00016623735427856445
-0.00016714632511138916
-0.00016739964485168457
-0.000167161226272583
-0.00016626715660095215
-0.00016489624977111816
-0.00016313791275024414
-0.0001609325408935547
-0.00015853345394134521
-0.0001560002565383911
-0.00015343725681304932
-0.00015106797218322754
-0.00014898180961608887
-0.00014729797840118408
-0.00014632940292358398
-0.00014619529247283936
-0.00014694035053253174
-0.00014863908290863037
-0.0001513957977294922
-0.00015516579151153564
-0.00015980005264282227
-0.00016516447067260742
-0.00017113983631134033
-0.00017736852169036865
-0.00018361210823059082
-0.00014509260654449463
-0.0001531541347503662
-0.00016045570373535156
-0.00016702711582183838
-0.0001729726791381836
-0.0001782923936843872
-0.00018300116062164307
-0.00018724799156188965
-0.00019095838069915771
-0.0001941472291946411
-0.00019694864749908447
-0.00019937753677368164
-0.0002015531063079834
-0.00020353496074676514
-0.0002056509256362915
-0.0002079606056213379
-0.00021065771579742432
-0.00021389126777648926
-0.00021779537200927734
-0.00022229552268981934
-0.00022736191749572754
-0.00023302435874938965
-0.00023902952671051025
-0.0002453327178955078
-0.00025175511837005615
-0.00025798380374908447
-0.0002639591693878174
-0.00026935338973999023
-0.0002739131450653076
-0.00027754902839660645
-0.0002799779176712036
-0.0002811998128890991
-0.00028108060359954834
-0.00027979910373687744
-0.0002772212028503418
-0.00027361512184143066
-0.00026898086071014404
-0.0002634972333908081
-0.0002572089433670044
-0.0002501755952835083
-0.000242576003074646
-0.0002342313528060913
-0.00022527575492858887
-0.00021564960479736328
-0.0002053976058959961
-0.0001946091651916504
-0.00018337368965148926
-0.00017189979553222656
-0.00016035139560699463
-0.0001490265130996704
-0.0001382678747177124
-0.00012828409671783447
-0.00011931359767913818
-0.00011171400547027588
-0.00010544061660766602
-0.00010071694850921631
-9.746849536895752e-05
-9.566545486450195e-05
-9.529292583465576e-05
-9.609758853912354e-05
-9.809434413909912e-05
-0.00010097026824951172
-0.00010460615158081055
-0.00010891258716583252
-0.00011366605758666992
-0.00011880695819854736
-0.00012406706809997559
-0.0001293867826461792
-0.00013463199138641357
-0.0001396387815475464
-0.0001443326473236084
-0.00014859437942504883
-0.00015231966972351074
-0.0001554340124130249
-0.00015795230865478516
-0.00015977025032043457
-0.00016099214553833008
-0.0001614689826965332
-0.00016133487224578857
-0.0001606196165084839
-0.000159338116645813
-0.0001575946807861328
-0.0001553744077682495
-0.00015288591384887695
-0.0001501142978668213
-0.00014728307723999023
-0.00014449656009674072
-0.00014194846153259277
-0.00013977289199829102
-0.0001382976770401001
-0.00013746321201324463
-0.0001375824213027954
-0.00013881921768188477
-0.0001412034034729004
-0.00014473497867584229
-0.0001493990421295166
-0.00015503168106079102
-0.00016151368618011475
-0.0001685619354248047
-0.0001757591962814331
-0.00014764070510864258
-0.00015495717525482178
-0.00016154348850250244
-0.00016745924949645996
-0.00017277896404266357
-0.00017756223678588867
-0.00018183887004852295
-0.0001857280731201172
-0.00018909573554992676
-0.00019215047359466553
-0.00019484758377075195
-0.00019724667072296143
-0.00019943714141845703
-0.00020147860050201416
-0.000203743577003479
-0.00020620226860046387
-0.00020910799503326416
-0.00021255016326904297
-0.00021661818027496338
-0.00022132694721221924
-0.0002266913652420044
-0.00023256242275238037
-0.00023892521858215332
-0.00024546682834625244
-0.0002521425485610962
-0.0002586543560028076
-0.0002648383378982544
-0.00027032196521759033
-0.0002751648426055908
-0.0002789348363876343
-0.0002814829349517822
-0.00028267502784729004
-0.00028246641159057617
-0.00028090178966522217
-0.0002779960632324219
-0.0002739131450653076
-0.00026880204677581787
-0.00026266276836395264
-0.0002557486295700073
-0.0002481192350387573
-0.00023989379405975342
-0.00023098289966583252
-0.00022147595882415771
-0.00021138787269592285
-0.00020076334476470947
-0.00018957257270812988
-0.0001780092716217041
-0.00016620755195617676
-0.0001544654369354248
-0.00014291703701019287
-0.0001319795846939087
-0.00012193620204925537
-0.00011289119720458984
-0.00010520219802856445
-9.892880916595459e-05
-9.414553642272949e-05
-9.083747863769531e-05
-8.907914161682129e-05
-8.854269981384277e-05
-8.93324613571167e-05
-9.098649024963379e-05
-9.366869926452637e-05
-9.706616401672363e-05
-0.00010110437870025635
-0.0001055598258972168
-0.00011038780212402344
-0.00011536478996276855
-0.00012052059173583984
-0.00012558698654174805
-0.00013053417205810547
-0.00013521313667297363
-0.000139579176902771
-0.00014354288578033447
-0.00014694035053253174
-0.0001497119665145874
-0.000151902437210083
-0.000153467059135437
-0.00015430152416229248
-0.0001544654369354248
-0.00015404820442199707
-0.00015302002429962158
-0.00015141069889068604
-0.0001493692398071289
-0.00014688074588775635
-0.00014403462409973145
-0.00014106929302215576
-0.0001380443572998047
-0.00013515353202819824
-0.0001325160264968872
-0.00013045966625213623
-0.000129014253616333
-0.00012855231761932373
-0.00012916326522827148
-0.00013102591037750244
-0.00013418495655059814
-0.00013862550258636475
-0.0001443028450012207
-0.00015112757682800293
-0.00015869736671447754
-0.0001668483018875122
-0.00014969706535339355
-0.00015632808208465576
-0.00016222894191741943
-0.00016760826110839844
-0.00017240643501281738
-0.0001767277717590332
-0.00018066167831420898
-0.00018420815467834473
-0.00018745660781860352
-0.00019040703773498535
-0.0001930147409439087
-0.00019544363021850586
-0.0001977086067199707
-0.000199928879737854
-0.0002022087574005127
-0.00020484626293182373
-0.0002079010009765625
-0.00021158158779144287
-0.0002158135175704956
-0.00022073090076446533
-0.0002263188362121582
-0.0002323836088180542
-0.00023888051509857178
-0.00024563074111938477
-0.0002524256706237793
-0.00025916099548339844
-0.00026547908782958984
-0.00027126073837280273
-0.00027617812156677246
-0.00028005242347717285
-0.00028267502784729004
-0.00028380751609802246
-0.00028346478939056396
-0.00028167665004730225
-0.00027836859226226807
-0.00027376413345336914
-0.00026807188987731934
-0.00026141107082366943
-0.0002539008855819702
-0.00024563074111938477
-0.0002367943525314331
-0.0002273470163345337
-0.00021736323833465576
-0.00020688772201538086