# vtk DataFile Version 3.0
2D PINN Solution
ASCII
DATASET STRUCTURED_GRID
DIMENSIONS 100 100 1
POINTS 10000 float
-1.0 -1.0 0.0
-0.9797979797979798 -1.0 0.0
-0.9595959595959596 -1.0 0.0
-0.9393939393939394 -1.0 0.0
-0.9191919191919192 -1.0 0.0
-0.898989898989899 -1.0 0.0
-0.8787878787878788 -1.0 0.0
-0.8585858585858586 -1.0 0.0
-0.8383838383838383 -1.0 0.0
-0.8181818181818181 -1.0 0.0
-0.797979797979798 -1.0 0.0
-0.7777777777777778 -1.0 0.0
-0.7575757575757576 -1.0 0.0
-0.7373737373737373 -1.0 0.0
-0.7171717171717171 -1.0 0.0
-0.696969696969697 -1.0 0.0
-0.6767676767676767 -1.0 0.0
-0.6565656565656566 -1.0 0.0
-0.6363636363636364 -1.0 0.0
-0.6161616161616161 -1.0 0.0
-0.5959595959595959 -1.0 0.0
-0.5757575757575757 -1.0 0.0
-0.5555555555555556 -1.0 0.0
-0.5353535353535352 -1.0 0.0
-0.5151515151515151 -1.0 0.0
-0.4949494949494949 -1.0 0.0
-0.4747474747474747 -1.0 0.0
-0.4545454545454545 -1.0 0.0
-0.43434343434343425 -1.0 0.0
-0.41414141414141414 -1.0 0.0
-0.3939393939393939 -1.0 0.0
-0.3737373737373737 -1.0 0.0
-0.3535353535353535 -1.0 0.0
-0.33333333333333326 -1.0 0.0
-0.31313131313131304 -1.0 0.0
-0.2929292929292928 -1.0 0.0
-0.2727272727272727 -1.0 0.0
-0.2525252525252525 -1.0 0.0
-0.23232323232323226 -1.0 0.0
-0.21212121212121204 -1.0 0.0
-0.19191919191919182 -1.0 0.0
-0.1717171717171716 -1.0 0.0
-0.1515151515151515 -1.0 0.0
-0.13131313131313127 -1.0 0.0
-0.11111111111111105 -1.0 0.0
-0.09090909090909083 -1.0 0.0
-0.07070707070707061 -1.0 0.0
-0.050505050505050386 -1.0 0.0
-0.030303030303030276 -1.0 0.0
-0.010101010101010055 -1.0 0.0
0.010101010101010166 -1.0 0.0
0.030303030303030498 -1.0 0.0
0.05050505050505061 -1.0 0.0
0.07070707070707072 -1.0 0.0
0.09090909090909105 -1.0 0.0
0.11111111111111116 -1.0 0.0
0.1313131313131315 -1.0 0.0
0.1515151515151516 -1.0 0.0
0.1717171717171717 -1.0 0.0
0.19191919191919204 -1.0 0.0
0.21212121212121215 -1.0 0.0
0.2323232323232325 -1.0 0.0
0.2525252525252526 -1.0 0.0
0.27272727272727293 -1.0 0.0
0.29292929292929304 -1.0 0.0
0.31313131313131315 -1.0 0.0
0.3333333333333335 -1.0 0.0
0.3535353535353536 -1.0 0.0
0.3737373737373739 -1.0 0.0
0.39393939393939403 -1.0 0.0
0.41414141414141437 -1.0 0.0
0.4343434343434345 -1.0 0.0
0.4545454545454546 -1.0 0.0
0.4747474747474749 -1.0 0.0
0.49494949494949503 -1.0 0.0
0.5151515151515154 -1.0 0.0
0.5353535353535355 -1.0 0.0
0.5555555555555556 -1.0 0.0
0.5757575757575759 -1.0 0.0
0.595959595959596 -1.0 0.0
0.6161616161616164 -1.0 0.0
0.6363636363636365 -1.0 0.0
0.6565656565656568 -1.0 0.0
0.6767676767676769 -1.0 0.0
0.696969696969697 -1.0 0.0
0.7171717171717173 -1.0 0.0
0.7373737373737375 -1.0 0.0
0.7575757575757578 -1.0 0.0
0.7777777777777779 -1.0 0.0
0.7979797979797982 -1.0 0.0
0.8181818181818183 -1.0 0.0
0.8383838383838385 -1.0 0.0
0.8585858585858588 -1.0 0.0
0.8787878787878789 -1.0 0.0
0.8989898989898992 -1.0 0.0
0.9191919191919193 -1.0 0.0
0.9393939393939394 -1.0 0.0
0.9595959595959598 -1.0 0.0
0.9797979797979799 -1.0 0.0
1.0 -1.0 0.0
-1.0 -0.9797979797979798 0.0
-0.9797979797979798 -0.9797979797979798 0.0
-0.9595959595959596 -0.9797979797979798 0.0
-0.9393939393939394 -0.9797979797979798 0.0
-0.9191919191919192 -0.9797979797979798 0.0
-0.898989898989899 -0.9797979797979798 0.0
-0.8787878787878788 -0.9797979797979798 0.0
-0.8585858585858586 -0.9797979797979798 0.0
-0.8383838383838383 -0.9797979797979798 0.0
-0.8181818181818181 -0.9797979797979798 0.0
-0.797979797979798 -0.9797979797979798 0.0
-0.7777777777777778 -0.9797979797979798 0.0
-0.7575757575757576 -0.9797979797979798 0.0
-0.7373737373737373 -0.9797979797979798 0.0
-0.7171717171717171 -0.9797979797979798 0.0
-0.696969696969697 -0.9797979797979798 0.0
-0.6767676767676767 -0.9797979797979798 0.0
-0.6565656565656566 -0.9797979797979798 0.0
-0.6363636363636364 -0.9797979797979798 0.0
-0.6161616161616161 -0.9797979797979798 0.0
-0.5959595959595959 -0.9797979797979798 0.0
-0.5757575757575757 -0.9797979797979798 0.0
-0.5555555555555556 -0.9797979797979798 0.0
-0.5353535353535352 -0.9797979797979798 0.0
-0.5151515151515151 -0.9797979797979798 0.0
-0.4949494949494949 -0.9797979797979798 0.0
-0.4747474747474747 -0.9797979797979798 0.0
-0.4545454545454545 -0.9797979797979798 0.0
-0.43434343434343425 -0.9797979797979798 0.0
-0.41414141414141414 -0.9797979797979798 0.0
-0.3939393939393939 -0.9797979797979798 0.0
-0.3737373737373737 -0.9797979797979798 0.0
-0.3535353535353535 -0.9797979797979798 0.0
-0.33333333333333326 -0.9797979797979798 0.0
-0.31313131313131304 -0.9797979797979798 0.0
-0.2929292929292928 -0.9797979797979798 0.0
-0.2727272727272727 -0.9797979797979798 0.0
-0.2525252525252525 -0.9797979797979798 0.0
-0.23232323232323226 -0.9797979797979798 0.0
-0.21212121212121204 -0.9797979797979798 0.0
-0.19191919191919182 -0.9797979797979798 0.0
-0.1717171717171716 -0.9797979797979798 0.0
-0.1515151515151515 -0.9797979797979798 0.0
-0.13131313131313127 -0.9797979797979798 0.0
-0.11111111111111105 -0.9797979797979798 0.0
-0.09090909090909083 -0.9797979797979798 0.0
-0.07070707070707061 -0.9797979797979798 0.0
-0.050505050505050386 -0.9797979797979798 0.0
-0.030303030303030276 -0.9797979797979798 0.0
-0.010101010101010055 -0.9797979797979798 0.0
0.010101010101010166 -0.9797979797979798 0.0
0.030303030303030498 -0.9797979797979798 0.0
0.05050505050505061 -0.9797979797979798 0.0
0.07070707070707072 -0.9797979797979798 0.0
0.09090909090909105 -0.9797979797979798 0.0
0.11111111111111116 -0.9797979797979798 0.0
0.1313131313131315 -0.9797979797979798 0.0
0.1515151515151516 -0.9797979797979798 0.0
0.1717171717171717 -0.9797979797979798 0.0
0.19191919191919204 -0.9797979797979798 0.0
0.21212121212121215 -0.9797979797979798 0.0
0.2323232323232325 -0.9797979797979798 0.0
0.2525252525252526 -0.9797979797979798 0.0
0.27272727272727293 -0.9797979797979798 0.0
0.29292929292929304 -0.9797979797979798 0.0
0.31313131313131315 -0.9797979797979798 0.0
0.3333333333333335 -0.9797979797979798 0.0
0.3535353535353536 -0.9797979797979798 0.0
0.3737373737373739 -0.9797979797979798 0.0
0.39393939393939403 -0.9797979797979798 0.0
0.41414141414141437 -0.9797979797979798 0.0
0.4343434343434345 -0.9797979797979798 0.0
0.4545454545454546 -0.9797979797979798 0.0
0.4747474747474749 -0.9797979797979798 0.0
0.49494949494949503 -0.9797979797979798 0.0
0.5151515151515154 -0.9797979797979798 0.0
0.5353535353535355 -0.9797979797979798 0.0
0.5555555555555556 -0.9797979797979798 0.0
0.5757575757575759 -0.9797979797979798 0.0
0.595959595959596 -0.9797979797979798 0.0
0.6161616161616164 -0.9797979797979798 0.0
0.6363636363636365 -0.9797979797979798 0.0
0.6565656565656568 -0.9797979797979798 0.0
0.6767676767676769 -0.9797979797979798 0.0
0.696969696969697 -0.9797979797979798 0.0
0.7171717171717173 -0.9797979797979798 0.0
0.7373737373737375 -0.9797979797979798 0.0
0.7575757575757578 -0.9797979797979798 0.0
0.7777777777777779 -0.9797979797979798 0.0
0.7979797979797982 -0.9797979797979798 0.0
0.8181818181818183 -0.9797979797979798 0.0
0.8383838383838385 -0.9797979797979798 0.0
0.8585858585858588 -0.9797979797979798 0.0
0.8787878787878789 -0.9797979797979798 0.0
0.8989898989898992 -0.9797979797979798 0.0
0.9191919191919193 -0.9797979797979798 0.0
0.9393939393939394 -0.9797979797979798 0.0
0.9595959595959598 -0.9797979797979798 0.0
0.9797979797979799 -0.9797979797979798 0.0
1.0 -0.9797979797979798 0.0
-1.0 -0.9595959595959596 0.0
-0.9797979797979798 -0.9595959595959596 0.0
-0.9595959595959596 -0.9595959595959596 0.0
-0.9393939393939394 -0.9595959595959596 0.0
-0.9191919191919192 -0.9595959595959596 0.0
-0.898989898989899 -0.9595959595959596 0.0
-0.8787878787878788 -0.9595959595959596 0.0
-0.8585858585858586 -0.9595959595959596 0.0
-0.8383838383838383 -0.9595959595959596 0.0
-0.8181818181818181 -0.9595959595959596 0.0
-0.797979797979798 -0.9595959595959596 0.0
-0.7777777777777778 -0.9595959595959596 0.0
-0.7575757575757576 -0.9595959595959596 0.0
-0.7373737373737373 -0.9595959595959596 0.0
-0.7171717171717171 -0.9595959595959596 0.0
-0.696969696969697 -0.9595959595959596 0.0
-0.6767676767676767 -0.9595959595959596 0.0
-0.6565656565656566 -0.9595959595959596 0.0
-0.6363636363636364 -0.9595959595959596 0.0
-0.6161616161616161 -0.9595959595959596 0.0
-0.5959595959595959 -0.9595959595959596 0.0
-0.5757575757575757 -0.9595959595959596 0.0
-0.5555555555555556 -0.9595959595959596 0.0
-0.5353535353535352 -0.9595959595959596 0.0
-0.5151515151515151 -0.9595959595959596 0.0
-0.4949494949494949 -0.9595959595959596 0.0
-0.4747474747474747 -0.9595959595959596 0.0
-0.4545454545454545 -0.9595959595959596 0.0
-0.43434343434343425 -0.9595959595959596 0.0
-0.41414141414141414 -0.9595959595959596 0.0
-0.3939393939393939 -0.9595959595959596 0.0
-0.3737373737373737 -0.9595959595959596 0.0
-0.3535353535353535 -0.9595959595959596 0.0
-0.33333333333333326 -0.9595959595959596 0.0
-0.31313131313131304 -0.9595959595959596 0.0
-0.2929292929292928 -0.9595959595959596 0.0
-0.2727272727272727 -0.9595959595959596 0.0
-0.2525252525252525 -0.9595959595959596 0.0
-0.23232323232323226 -0.9595959595959596 0.0
-0.21212121212121204 -0.9595959595959596 0.0
-0.19191919191919182 -0.9595959595959596 0.0
-0.1717171717171716 -0.9595959595959596 0.0
-0.1515151515151515 -0.9595959595959596 0.0
-0.13131313131313127 -0.9595959595959596 0.0
-0.11111111111111105 -0.9595959595959596 0.0
-0.09090909090909083 -0.9595959595959596 0.0
-0.07070707070707061 -0.9595959595959596 0.0
-0.050505050505050386 -0.9595959595959596 0.0
-0.030303030303030276 -0.9595959595959596 0.0
-0.010101010101010055 -0.9595959595959596 0.0
0.010101010101010166 -0.9595959595959596 0.0
0.030303030303030498 -0.9595959595959596 0.0
0.05050505050505061 -0.9595959595959596 0.0
0.07070707070707072 -0.9595959595959596 0.0
0.09090909090909105 -0.9595959595959596 0.0
0.11111111111111116 -0.9595959595959596 0.0
0.1313131313131315 -0.9595959595959596 0.0
0.1515151515151516 -0.9595959595959596 0.0
0.1717171717171717 -0.9595959595959596 0.0
0.19191919191919204 -0.9595959595959596 0.0
0.21212121212121215 -0.9595959595959596 0.0
[...]
POINT_DATA 10000
SCALARS u float 1
LOOKUP_TABLE default
4.3898820877075195e-05
4.0784478187561035e-05
3.814697265625e-05
3.6135315895080566e-05
3.46451997756958e-05
3.3602118492126465e-05
3.300607204437256e-05
3.2708048820495605e-05
3.27378511428833e-05
3.3155083656311035e-05
3.37064266204834e-05
3.452599048614502e-05
3.5509467124938965e-05
3.662705421447754e-05
3.78340482711792e-05
3.914535045623779e-05
4.0590763092041016e-05
4.2051076889038086e-05
4.3585896492004395e-05
4.521012306213379e-05
4.6819448471069336e-05
4.857778549194336e-05
5.036592483520508e-05
5.2168965339660645e-05
5.40316104888916e-05
5.599856376647949e-05
5.8010220527648926e-05
6.00963830947876e-05
6.218254566192627e-05
6.428360939025879e-05
6.645917892456055e-05
6.866455078125e-05
7.075071334838867e-05
7.289648056030273e-05
7.492303848266602e-05
7.69197940826416e-05
7.875263690948486e-05
8.046627044677734e-05
8.19861888885498e-05
8.319318294525146e-05
8.428096771240234e-05
8.490681648254395e-05
8.52048397064209e-05
8.508563041687012e-05
8.431077003479004e-05
8.308887481689453e-05
8.124113082885742e-05
7.867813110351562e-05
7.545948028564453e-05
7.142126560211182e-05
6.67273998260498e-05
6.125867366790771e-05
5.494058132171631e-05
4.795193672180176e-05
4.017353057861328e-05
3.178417682647705e-05
2.269446849822998e-05
1.2993812561035156e-05
2.816319465637207e-06
-7.88271427154541e-06
-1.8835067749023438e-05
-3.001093864440918e-05
-4.118680953979492e-05
-5.225837230682373e-05
-6.301701068878174e-05
-7.331371307373047e-05
-8.293986320495605e-05
-9.180605411529541e-05
-9.991228580474854e-05
-0.0001071244478225708
-0.00011345744132995605
-0.00011883676052093506
-0.0001234114170074463
-0.0001271963119506836
-0.00013022124767303467
-0.00013262033462524414
-0.00013430416584014893
-0.00013554096221923828
-0.0001363009214401245
-0.0001367330551147461
-0.00013683736324310303
-0.00013688206672668457
-0.00013683736324310303
-0.0001369267702102661
-0.00013725459575653076
-0.0001379549503326416
-0.00013901293277740479
-0.0001407414674758911
-0.0001429915428161621
-0.0001458972692489624
-0.0001493990421295166
-0.00015348196029663086
-0.00015810132026672363
-0.00016316771507263184
-0.00016854703426361084
-0.00017412006855010986
-0.0001798570156097412
-0.00018548965454101562
-0.00019097328186035156
-0.00019618868827819824
4.680454730987549e-05
4.413723945617676e-05
4.203617572784424e-05
4.0397047996520996e-05
3.927946090698242e-05
3.8564205169677734e-05
3.832578659057617e-05
3.834068775177002e-05
3.871321678161621e-05
3.9324164390563965e-05
4.0158629417419434e-05
4.108250141143799e-05
4.2185187339782715e-05
4.3332576751708984e-05
4.4718384742736816e-05
4.604458808898926e-05
4.738569259643555e-05
4.8860907554626465e-05
5.030632019042969e-05
5.179643630981445e-05
5.336105823516846e-05
5.491077899932861e-05
5.650520324707031e-05
5.811452865600586e-05
5.9738755226135254e-05
6.142258644104004e-05
6.307661533355713e-05
6.48200511932373e-05
6.651878356933594e-05
6.827712059020996e-05
7.008016109466553e-05
7.183849811553955e-05
7.355213165283203e-05
7.526576519012451e-05
7.69495964050293e-05
7.855892181396484e-05
8.0108642578125e-05
8.150935173034668e-05
8.282065391540527e-05
8.392333984375e-05
8.484721183776855e-05
8.538365364074707e-05
8.572638034820557e-05
8.559226989746094e-05
8.507072925567627e-05
8.398294448852539e-05
8.237361907958984e-05
8.015334606170654e-05
7.72327184677124e-05
7.367134094238281e-05
6.942451000213623e-05
6.444752216339111e-05
5.8785080909729004e-05
5.239248275756836e-05
4.532933235168457e-05
3.756582736968994e-05
2.9146671295166016e-05
2.0056962966918945e-05
1.0356307029724121e-05
1.043081283569336e-07
-1.0535120964050293e-05
-2.1517276763916016e-05
-3.2648444175720215e-05
-4.3720006942749023e-05
-5.461275577545166e-05
-6.507337093353271e-05
-7.489323616027832e-05
-8.39531421661377e-05
-9.21487808227539e-05
-9.953975677490234e-05
-0.00010590255260467529
-0.00011140108108520508
-0.0001160353422164917
-0.00011999905109405518
-0.00012317299842834473
-0.00012581050395965576
-0.00012788176536560059
-0.00012952089309692383
-0.00013077259063720703
-0.00013177096843719482
-0.00013244152069091797
-0.00013305246829986572
-0.0001335740089416504
-0.0001340806484222412
-0.0001348555088043213
-0.00013574957847595215
-0.00013715028762817383
-0.000138893723487854
-0.000141143798828125
-0.0001440197229385376
-0.0001474320888519287
-0.00015135109424591064
-0.0001558363437652588
-0.00016070902347564697
-0.0001659393310546875
-0.00017139315605163574
-0.00017690658569335938
-0.00018246471881866455
-0.00018784403800964355
-0.0001930147409439087
4.9561262130737305e-05
4.7266483306884766e-05
4.5493245124816895e-05
4.424154758453369e-05
4.3451786041259766e-05
4.303455352783203e-05
4.3004751205444336e-05
4.32431697845459e-05
4.3779611587524414e-05
4.44948673248291e-05
4.5359134674072266e-05
4.634261131286621e-05
4.743039608001709e-05
4.8667192459106445e-05
4.984438419342041e-05
5.106627941131592e-05
5.233287811279297e-05
5.359947681427002e-05
5.488097667694092e-05
5.620718002319336e-05
5.745887756347656e-05
5.8785080909729004e-05
6.0111284255981445e-05
6.140768527984619e-05
6.270408630371094e-05
6.406009197235107e-05
6.537139415740967e-05
6.674230098724365e-05
6.812810897827148e-05
6.943941116333008e-05
7.084012031555176e-05
7.221102714538574e-05
7.356703281402588e-05
7.486343383789062e-05
7.623434066772461e-05
7.756054401397705e-05
7.88271427154541e-05
8.00788402557373e-05
8.124113082885742e-05
8.228421211242676e-05
8.316338062286377e-05
8.383393287658691e-05
8.42064619064331e-05
8.434057235717773e-05
8.401274681091309e-05
8.325278759002686e-05
8.200109004974365e-05
8.004903793334961e-05
7.762014865875244e-05
7.444620132446289e-05
7.069110870361328e-05
6.623566150665283e-05
6.119906902313232e-05
5.544722080230713e-05
4.912912845611572e-05
4.215538501739502e-05
3.4481287002563477e-05
2.6181340217590332e-05
1.7330050468444824e-05
7.748603820800781e-06
-2.294778823852539e-06
-1.2770295143127441e-05
-2.346932888031006e-05
-3.427267074584961e-05
-4.494190216064453e-05
-5.5223703384399414e-05
-6.493926048278809e-05
-7.389485836029053e-05
-8.200109004974365e-05
-8.919835090637207e-05
-9.550154209136963e-05
-0.00010088086128234863
-0.0001055598258972168
-0.00010952353477478027
-0.00011292099952697754
-0.00011582672595977783
-0.00011837482452392578
-0.00012063980102539062
-0.00012260675430297852
-0.00012433528900146484
-0.00012587010860443115
-0.00012728571891784668
-0.00012856721878051758
-0.00012986361980438232
-0.00013117492198944092
-0.00013262033462524414
-0.00013436377048492432
-0.000136449933052063
-0.00013887882232666016
-0.00014181435108184814
-0.00014518201351165771
-0.0001490861177444458
-0.000153467059135437
-0.00015826523303985596
-0.00016330182552337646
-0.00016866624355316162
-0.00017410516738891602
-0.00017955899238586426
-0.00018490850925445557
-0.0001900196075439453
5.1975250244140625e-05
5.0008296966552734e-05
4.857778549194336e-05
4.762411117553711e-05
4.699826240539551e-05
4.678964614868164e-05
4.6893954277038574e-05
4.722177982330322e-05
4.7773122787475586e-05
4.8533082008361816e-05
4.932284355163574e-05
5.029141902923584e-05
5.1215291023254395e-05
5.2168965339660645e-05
5.322694778442383e-05
5.4195523262023926e-05
5.519390106201172e-05
5.6177377700805664e-05
5.717575550079346e-05
5.812942981719971e-05
5.914270877838135e-05
6.012618541717529e-05
6.105005741119385e-05
6.201863288879395e-05
6.300210952758789e-05
6.395578384399414e-05
6.489455699920654e-05
6.589293479919434e-05
6.67870044708252e-05
6.775557994842529e-05
6.873905658721924e-05
6.973743438720703e-05
7.075071334838867e-05
7.176399230957031e-05
7.280707359313965e-05
7.390975952148438e-05
7.50422477722168e-05
7.621943950653076e-05
7.732212543487549e-05
7.840991020202637e-05
7.940828800201416e-05
8.033215999603271e-05
8.100271224975586e-05
8.14199447631836e-05
8.149445056915283e-05
8.116662502288818e-05
8.033215999603271e-05
7.88569450378418e-05
7.68899917602539e-05
7.432699203491211e-05
7.107853889465332e-05
6.729364395141602e-05
6.282329559326172e-05
5.7756900787353516e-05
5.2168965339660645e-05
4.601478576660156e-05
3.921985626220703e-05
3.1813979148864746e-05
2.372264862060547e-05
1.5035271644592285e-05
5.826354026794434e-06
-3.9637088775634766e-06
-1.4066696166992188e-05
-2.428889274597168e-05
-3.446638584136963e-05
-4.4345855712890625e-05
-5.361437797546387e-05
-6.219744682312012e-05
-6.990134716033936e-05
-7.675588130950928e-05
-8.268654346466064e-05
-8.785724639892578e-05
-9.229779243469238e-05
-9.620189666748047e-05
-9.970366954803467e-05
-0.0001029670238494873
-0.00010599195957183838
-0.00010892748832702637
-0.00011172890663146973
-0.0001144111156463623
-0.00011695921421051025
-0.00011946260929107666
-0.00012177228927612305
-0.0001240372657775879
-0.0001261979341506958
-0.0001283884048461914
-0.00013071298599243164
-0.0001332014799118042
-0.00013597309589385986
-0.00013911724090576172
-0.0001426488161087036
-0.0001465827226638794
-0.0001509338617324829
-0.00015564262866973877
-0.00016069412231445312
-0.0001659393310546875
-0.00017130374908447266
-0.0001767575740814209
-0.00018203258514404297
-0.0001872032880783081
5.412101745605469e-05
5.24669885635376e-05
5.1215291023254395e-05
5.041062831878662e-05
4.996359348297119e-05
4.9814581871032715e-05
4.999339580535889e-05
5.030632019042969e-05
5.0827860832214355e-05
5.137920379638672e-05
5.201995372772217e-05
5.2735209465026855e-05
5.342066287994385e-05
5.412101745605469e-05
5.473196506500244e-05
5.5402517318725586e-05
5.599856376647949e-05
5.6624412536621094e-05
5.7220458984375e-05
5.7816505432128906e-05
5.836784839630127e-05
5.894899368286133e-05
5.955994129180908e-05
6.0051679611206055e-05
6.058812141418457e-05
6.115436553955078e-05
6.172060966491699e-05
6.230175495147705e-05
6.280839443206787e-05
6.337463855743408e-05
6.398558616638184e-05
6.465613842010498e-05
6.532669067382812e-05
6.61015510559082e-05
6.693601608276367e-05
6.794929504394531e-05
6.893277168273926e-05
7.015466690063477e-05
7.134675979614258e-05
7.265806198120117e-05
7.393956184387207e-05
7.520616054534912e-05
7.635354995727539e-05
7.727742195129395e-05
7.794797420501709e-05
7.82012939453125e-05
7.803738117218018e-05
7.732212543487549e-05
7.605552673339844e-05
7.420778274536133e-05
7.168948650360107e-05
6.860494613647461e-05
6.48796558380127e-05
6.051361560821533e-05
5.570054054260254e-05
5.027651786804199e-05
4.433095455169678e-05
3.771483898162842e-05
3.0502676963806152e-05
2.2619962692260742e-05
1.411139965057373e-05
5.081295967102051e-06
-4.291534423828125e-06
-1.3947486877441406e-05
-2.346932888031006e-05
-3.279745578765869e-05
-4.1484832763671875e-05
-4.9486756324768066e-05
-5.65946102142334e-05
-6.29127025604248e-05
-6.829202175140381e-05
-7.295608520507812e-05
-7.702410221099854e-05
-8.07344913482666e-05
-8.422136306762695e-05
-8.763372898101807e-05
-9.115040302276611e-05
-9.472668170928955e-05
-9.848177433013916e-05
-0.00010222196578979492
-0.00010596215724945068
-0.0001096874475479126
-0.00011324882507324219
-0.0001166611909866333
-0.00011989474296569824
-0.0001230090856552124
-0.00012612342834472656
-0.00012922286987304688
-0.00013250112533569336
-0.00013594329357147217
-0.00013971328735351562
-0.00014381110668182373
-0.00014822185039520264
-0.00015291571617126465
-0.00015795230865478516
-0.00016324222087860107
-0.00016857683658599854
-0.00017401576042175293
-0.00017930567264556885
-0.0001844465732574463
5.5983662605285645e-05
5.4508447647094727e-05
5.3375959396362305e-05
5.269050598144531e-05
5.2347779273986816e-05
5.224347114562988e-05
5.2288174629211426e-05
5.249679088592529e-05
5.285441875457764e-05
5.315244197845459e-05
5.3569674491882324e-05
5.389750003814697e-05
5.4195523262023926e-05
5.447864532470703e-05
5.4702162742614746e-05
5.485117435455322e-05
5.501508712768555e-05
5.513429641723633e-05
5.525350570678711e-05
5.5342912673950195e-05
5.5417418479919434e-05
5.552172660827637e-05
5.561113357543945e-05
5.574524402618408e-05
5.589425563812256e-05
5.6043267250061035e-05
5.6162476539611816e-05
5.634129047393799e-05
5.646049976348877e-05
5.6684017181396484e-05
5.696713924407959e-05
5.729496479034424e-05
5.7756900787353516e-05
5.835294723510742e-05
5.9038400650024414e-05
5.988776683807373e-05
6.10649585723877e-05
6.23464584350586e-05
6.385147571563721e-05
6.549060344696045e-05
6.721913814544678e-05
6.908178329467773e-05
7.084012031555176e-05
7.258355617523193e-05
7.4043869972229e-05
7.528066635131836e-05
7.605552673339844e-05
7.644295692443848e-05
7.621943950653076e-05
7.541477680206299e-05
7.40736722946167e-05
7.197260856628418e-05
6.935000419616699e-05
6.598234176635742e-05
6.201863288879395e-05
5.741417407989502e-05
5.21540641784668e-05
4.628300666809082e-05
3.968179225921631e-05
3.235042095184326e-05
2.434849739074707e-05
1.5720725059509277e-05
6.720423698425293e-06
-2.5480985641479492e-06
-1.169741153717041e-05
-2.060830593109131e-05
-2.8848648071289062e-05
-3.625452518463135e-05
-4.279613494873047e-05
-4.8413872718811035e-05
-5.315244197845459e-05
-5.7190656661987305e-05
-6.0692429542541504e-05
-6.400048732757568e-05
-6.729364395141602e-05
-7.082521915435791e-05
-7.459521293640137e-05
-7.878243923187256e-05
-8.32974910736084e-05
-8.815526962280273e-05
-9.316205978393555e-05
-9.816884994506836e-05
-0.00010307133197784424
-0.0001077800989151001
-0.00011228024959564209
-0.00011648237705230713
-0.000120505690574646
-0.00012442469596862793
-0.00012834370136260986
-0.0001322329044342041
-0.00013637542724609375
-0.00014068186283111572
-0.0001452714204788208
-0.00015009939670562744
-0.0001551806926727295
-0.00016042590141296387
-0.00016582012176513672
-0.00017127394676208496
-0.00017660856246948242
-0.0001817643642425537
5.75333833694458e-05
5.622208118438721e-05
5.5208802223205566e-05
5.4523348808288574e-05
5.4210424423217773e-05
5.4001808166503906e-05
5.3942203521728516e-05
5.398690700531006e-05
5.4016709327697754e-05
5.404651165008545e-05
5.398690700531006e-05
5.389750003814697e-05
5.373358726501465e-05
5.3510069847106934e-05
5.316734313964844e-05
5.2869319915771484e-05
5.239248275756836e-05
5.201995372772217e-05
5.157291889190674e-05
5.1081180572509766e-05
5.0649046897888184e-05
5.030632019042969e-05
4.988908767700195e-05
4.9561262130737305e-05
4.9233436584472656e-05
4.895031452178955e-05
4.869699478149414e-05
4.845857620239258e-05
4.824995994567871e-05
4.817545413970947e-05
4.817545413970947e-05
4.826486110687256e-05
4.857778549194336e-05
4.903972148895264e-05
4.978477954864502e-05
5.079805850982666e-05
5.21540641784668e-05
5.3688883781433105e-05
5.5670738220214844e-05
5.78463077545166e-05
6.031990051269531e-05
6.289780139923096e-05
6.560981273651123e-05
6.83218240737915e-05
7.098913192749023e-05
7.347762584686279e-05
7.56978988647461e-05
7.75456428527832e-05
7.909536361694336e-05
8.003413677215576e-05
8.048117160797119e-05
8.019804954528809e-05
7.922947406768799e-05
7.744133472442627e-05
7.481873035430908e-05
7.131695747375488e-05
6.690621376037598e-05
6.158649921417236e-05
5.5283308029174805e-05
4.798173904418945e-05
3.980100154876709e-05
3.089010715484619e-05
2.1442770957946777e-05
1.1771917343139648e-05
2.16066837310791e-06
-6.9588422775268555e-06
-1.5288591384887695e-05
-2.263486385345459e-05
-2.8878450393676758e-05
-3.40193510055542e-05
-3.819167613983154e-05
-4.152953624725342e-05
-4.442036151885986e-05
-4.719197750091553e-05
-5.005300045013428e-05
-5.3435564041137695e-05
-5.729496479034424e-05
-6.186962127685547e-05
-6.711483001708984e-05
-7.288157939910889e-05
-7.900595664978027e-05
-8.529424667358398e-05
-9.161233901977539e-05
-9.767711162567139e-05
-0.00010354816913604736
-0.00010894238948822021
-0.00011406838893890381
-0.00011892616748809814
-0.00012354552745819092
-0.0001281052827835083
-0.0001326054334640503
-0.0001372694969177246
-0.00014206767082214355
-0.00014708936214447021
-0.0001522451639175415
-0.0001576244831085205
-0.00016304850578308105
-0.00016857683658599854
-0.00017400085926055908
-0.0001792609691619873
5.885958671569824e-05
5.7637691497802734e-05
5.671381950378418e-05
5.601346492767334e-05
5.556643009185791e-05
5.519390106201172e-05
5.498528480529785e-05
5.474686622619629e-05
5.443394184112549e-05
5.40614128112793e-05
5.359947681427002e-05
5.301833152770996e-05
5.227327346801758e-05
5.14984130859375e-05
5.058944225311279e-05
4.965066909790039e-05
4.857778549194336e-05
4.756450653076172e-05
4.655122756958008e-05
4.553794860839844e-05
4.458427429199219e-05
4.363059997558594e-05
4.279613494873047e-05
4.1991472244262695e-05
4.124641418457031e-05
4.0590763092041016e-05
3.9950013160705566e-05
3.93986701965332e-05
3.8936734199523926e-05
3.865361213684082e-05
3.8430094718933105e-05
3.84598970413208e-05
3.88026237487793e-05
3.936886787414551e-05
4.0218234062194824e-05
4.1544437408447266e-05
4.3272972106933594e-05
4.540383815765381e-05
4.798173904418945e-05
5.097687244415283e-05
5.4329633712768555e-05
5.799531936645508e-05
6.188452243804932e-05
6.596744060516357e-05
7.016956806182861e-05
7.43865966796875e-05
7.864832878112793e-05
8.280575275421143e-05
8.690357208251953e-05
9.065866470336914e-05
9.41157341003418e-05
9.69916582107544e-05
9.895861148834229e-05
9.995698928833008e-05
9.976327419281006e-05
9.816884994506836e-05
9.503960609436035e-05
9.037554264068604e-05
8.408725261688232e-05
7.617473602294922e-05
6.684660911560059e-05
5.6296586990356445e-05
4.489719867706299e-05
3.314018249511719e-05
2.1591782569885254e-05
1.0624527931213379e-05
8.046627044677734e-07
-7.644295692443848e-06
-1.4573335647583008e-05
-1.9937753677368164e-05
-2.396106719970703e-05
-2.703070640563965e-05
-2.9414892196655273e-05
-3.153085708618164e-05
-3.392994403839111e-05
-3.682076930999756e-05
-4.060566425323486e-05
-4.522502422332764e-05
-5.085766315460205e-05
-5.728006362915039e-05
-6.432831287384033e-05
-7.179379463195801e-05
-7.936358451843262e-05
-8.684396743774414e-05
-9.395182132720947e-05
-0.00010064244270324707
-0.00010693073272705078
-0.00011271238327026367
-0.000118255615234375
-0.0001233816146850586
-0.0001285076141357422
-0.0001335740089416504
-0.0001386702060699463
-0.00014385581016540527
-0.00014923512935638428
-0.00015479326248168945
-0.0001602470874786377
-0.00016586482524871826
-0.0001713782548904419
-0.00017680227756500244
5.990266799926758e-05
5.8785080909729004e-05
5.7891011238098145e-05
5.7116150856018066e-05
5.65946102142334e-05
5.601346492767334e-05
5.549192428588867e-05
5.492568016052246e-05
5.4195523262023926e-05
5.339086055755615e-05
5.2422285079956055e-05
5.131959915161133e-05
5.0008296966552734e-05
4.859268665313721e-05
4.70578670501709e-05
4.5493245124816895e-05
4.388391971588135e-05
4.221498966217041e-05
4.063546657562256e-05
3.91155481338501e-05
3.764033317565918e-05
3.619492053985596e-05
3.491342067718506e-05
3.375113010406494e-05
3.263354301452637e-05
3.1575560569763184e-05
3.071129322052002e-05
2.995133399963379e-05
2.937018871307373e-05
2.89231538772583e-05
2.872943878173828e-05
2.886354923248291e-05
2.9295682907104492e-05
3.0115246772766113e-05
3.147125244140625e-05
3.3289194107055664e-05
3.5643577575683594e-05
3.8623809814453125e-05
4.209578037261963e-05
4.616379737854004e-05
5.073845386505127e-05
5.571544170379639e-05
6.116926670074463e-05
6.701052188873291e-05
7.325410842895508e-05
7.988512516021729e-05
8.700788021087646e-05
9.460747241973877e-05
0.00010259449481964111
0.00011089444160461426
0.00011929869651794434
0.00012737512588500977
0.0001347064971923828
0.00014066696166992188
0.0001449882984161377
0.00014702975749969482
0.00014650821685791016
0.00014312565326690674
0.00013682246208190918
0.00012764334678649902
0.00011573731899261475
0.00010162591934204102
8.592009544372559e-05
6.936490535736084e-05
5.2869319915771484e-05
3.7297606468200684e-05
2.3350119590759277e-05
1.150369644165039e-05
1.9222497940063477e-06
-5.319714546203613e-06
-1.0460615158081055e-05
-1.4036893844604492e-05
-1.6391277313232422e-05
-1.8268823623657227e-05
-2.014636993408203e-05
-2.251565456390381e-05
-2.5779008865356445e-05
-3.02046537399292e-05
-3.579258918762207e-05
-4.2498111724853516e-05
-5.0187110900878906e-05
-5.848705768585205e-05