# vtk DataFile Version 3.0
2D PINN Solution
ASCII
DATASET STRUCTURED_GRID
DIMENSIONS 100 100 1
POINTS 10000 float
-1.0 -1.0 0.0
-0.9797979797979798 -1.0 0.0
-0.9595959595959596 -1.0 0.0
-0.9393939393939394 -1.0 0.0
-0.9191919191919192 -1.0 0.0
-0.898989898989899 -1.0 0.0
-0.8787878787878788 -1.0 0.0
-0.8585858585858586 -1.0 0.0
-0.8383838383838383 -1.0 0.0
-0.8181818181818181 -1.0 0.0
-0.797979797979798 -1.0 0.0
-0.7777777777777778 -1.0 0.0
-0.7575757575757576 -1.0 0.0
-0.7373737373737373 -1.0 0.0
-0.7171717171717171 -1.0 0.0
-0.696969696969697 -1.0 0.0
-0.6767676767676767 -1.0 0.0
-0.6565656565656566 -1.0 0.0
-0.6363636363636364 -1.0 0.0
-0.6161616161616161 -1.0 0.0
-0.5959595959595959 -1.0 0.0
-0.5757575757575757 -1.0 0.0
-0.5555555555555556 -1.0 0.0
-0.5353535353535352 -1.0 0.0
-0.5151515151515151 -1.0 0.0
-0.4949494949494949 -1.0 0.0
-0.4747474747474747 -1.0 0.0
-0.4545454545454545 -1.0 0.0
-0.43434343434343425 -1.0 0.0
-0.41414141414141414 -1.0 0.0
-0.3939393939393939 -1.0 0.0
-0.3737373737373737 -1.0 0.0
-0.3535353535353535 -1.0 0.0
-0.33333333333333326 -1.0 0.0
-0.31313131313131304 -1.0 0.0
-0.2929292929292928 -1.0 0.0
-0.2727272727272727 -1.0 0.0
-0.2525252525252525 -1.0 0.0
-0.23232323232323226 -1.0 0.0
-0.21212121212121204 -1.0 0.0
-0.19191919191919182 -1.0 0.0
-0.1717171717171716 -1.0 0.0
-0.1515151515151515 -1.0 0.0
-0.13131313131313127 -1.0 0.0
-0.11111111111111105 -1.0 0.0
-0.09090909090909083 -1.0 0.0
-0.07070707070707061 -1.0 0.0
-0.050505050505050386 -1.0 0.0
-0.030303030303030276 -1.0 0.0
-0.010101010101010055 -1.0 0.0
0.010101010101010166 -1.0 0.0
0.030303030303030498 -1.0 0.0
0.05050505050505061 -1.0 0.0
0.07070707070707072 -1.0 0.0
0.09090909090909105 -1.0 0.0
0.11111111111111116 -1.0 0.0
0.1313131313131315 -1.0 0.0
0.1515151515151516 -1.0 0.0
0.1717171717171717 -1.0 0.0
0.19191919191919204 -1.0 0.0
0.21212121212121215 -1.0 0.0
0.2323232323232325 -1.0 0.0
0.2525252525252526 -1.0 0.0
0.27272727272727293 -1.0 0.0
0.29292929292929304 -1.0 0.0
0.31313131313131315 -1.0 0.0
0.3333333333333335 -1.0 0.0
0.3535353535353536 -1.0 0.0
0.3737373737373739 -1.0 0.0
0.39393939393939403 -1.0 0.0
0.41414141414141437 -1.0 0.0
0.4343434343434345 -1.0 0.0
0.4545454545454546 -1.0 0.0
0.4747474747474749 -1.0 0.0
0.49494949494949503 -1.0 0.0
0.5151515151515154 -1.0 0.0
0.5353535353535355 -1.0 0.0
0.5555555555555556 -1.0 0.0
0.5757575757575759 -1.0 0.0
0.595959595959596 -1.0 0.0
0.6161616161616164 -1.0 0.0
0.6363636363636365 -1.0 0.0
0.6565656565656568 -1.0 0.0
0.6767676767676769 -1.0 0.0
0.696969696969697 -1.0 0.0
0.7171717171717173 -1.0 0.0
0.7373737373737375 -1.0 0.0
0.7575757575757578 -1.0 0.0
0.7777777777777779 -1.0 0.0
0.7979797979797982 -1.0 0.0
0.8181818181818183 -1.0 0.0
0.8383838383838385 -1.0 0.0
0.8585858585858588 -1.0 0.0
0.8787878787878789 -1.0 0.0
0.8989898989898992 -1.0 0.0
0.9191919191919193 -1.0 0.0
0.9393939393939394 -1.0 0.0
0.9595959595959598 -1.0 0.0
0.9797979797979799 -1.0 0.0
1.0 -1.0 0.0
-1.0 -0.9797979797979798 0.0
-0.9797979797979798 -0.9797979797979798 0.0
-0.9595959595959596 -0.9797979797979798 0.0
-0.9393939393939394 -0.9797979797979798 0.0
-0.9191919191919192 -0.9797979797979798 0.0
-0.898989898989899 -0.9797979797979798 0.0
-0.8787878787878788 -0.9797979797979798 0.0
-0.8585858585858586 -0.9797979797979798 0.0
-0.8383838383838383 -0.9797979797979798 0.0
-0.8181818181818181 -0.9797979797979798 0.0
-0.797979797979798 -0.9797979797979798 0.0
-0.7777777777777778 -0.9797979797979798 0.0
-0.7575757575757576 -0.9797979797979798 0.0
-0.7373737373737373 -0.9797979797979798 0.0
-0.7171717171717171 -0.9797979797979798 0.0
-0.696969696969697 -0.9797979797979798 0.0
-0.6767676767676767 -0.9797979797979798 0.0
-0.6565656565656566 -0.9797979797979798 0.0
-0.6363636363636364 -0.9797979797979798 0.0
-0.6161616161616161 -0.9797979797979798 0.0
-0.5959595959595959 -0.9797979797979798 0.0
-0.5757575757575757 -0.9797979797979798 0.0
-0.5555555555555556 -0.9797979797979798 0.0
-0.5353535353535352 -0.9797979797979798 0.0
-0.5151515151515151 -0.9797979797979798 0.0
-0.4949494949494949 -0.9797979797979798 0.0
-0.4747474747474747 -0.9797979797979798 0.0
-0.4545454545454545 -0.9797979797979798 0.0
-0.43434343434343425 -0.9797979797979798 0.0
-0.41414141414141414 -0.9797979797979798 0.0
-0.3939393939393939 -0.9797979797979798 0.0
-0.3737373737373737 -0.9797979797979798 0.0
-0.3535353535353535 -0.9797979797979798 0.0
-0.33333333333333326 -0.9797979797979798 0.0
-0.31313131313131304 -0.9797979797979798 0.0
-0.2929292929292928 -0.9797979797979798 0.0
-0.2727272727272727 -0.9797979797979798 0.0
-0.2525252525252525 -0.9797979797979798 0.0
-0.23232323232323226 -0.9797979797979798 0.0
-0.21212121212121204 -0.9797979797979798 0.0
-0.19191919191919182 -0.9797979797979798 0.0
-0.1717171717171716 -0.9797979797979798 0.0
-0.1515151515151515 -0.9797979797979798 0.0
-0.13131313131313127 -0.9797979797979798 0.0
-0.11111111111111105 -0.9797979797979798 0.0
-0.09090909090909083 -0.9797979797979798 0.0
-0.07070707070707061 -0.9797979797979798 0.0
-0.050505050505050386 -0.9797979797979798 0.0
-0.030303030303030276 -0.9797979797979798 0.0
-0.010101010101010055 -0.9797979797979798 0.0
0.010101010101010166 -0.9797979797979798 0.0
0.030303030303030498 -0.9797979797979798 0.0
0.05050505050505061 -0.9797979797979798 0.0
0.07070707070707072 -0.9797979797979798 0.0
0.09090909090909105 -0.9797979797979798 0.0
0.11111111111111116 -0.9797979797979798 0.0
0.1313131313131315 -0.9797979797979798 0.0
0.1515151515151516 -0.9797979797979798 0.0
0.1717171717171717 -0.9797979797979798 0.0
0.19191919191919204 -0.9797979797979798 0.0
0.21212121212121215 -0.9797979797979798 0.0
0.2323232323232325 -0.9797979797979798 0.0
0.2525252525252526 -0.9797979797979798 0.0
0.27272727272727293 -0.9797979797979798 0.0
0.29292929292929304 -0.9797979797979798 0.0
0.31313131313131315 -0.9797979797979798 0.0
0.3333333333333335 -0.9797979797979798 0.0
0.3535353535353536 -0.9797979797979798 0.0
0.3737373737373739 -0.9797979797979798 0.0
0.39393939393939403 -0.9797979797979798 0.0
0.41414141414141437 -0.9797979797979798 0.0
0.4343434343434345 -0.9797979797979798 0.0
0.4545454545454546 -0.9797979797979798 0.0
0.4747474747474749 -0.9797979797979798 0.0
0.49494949494949503 -0.9797979797979798 0.0
0.5151515151515154 -0.9797979797979798 0.0
0.5353535353535355 -0.9797979797979798 0.0
0.5555555555555556 -0.9797979797979798 0.0
0.5757575757575759 -0.9797979797979798 0.0
0.595959595959596 -0.9797979797979798 0.0
0.6161616161616164 -0.9797979797979798 0.0
0.6363636363636365 -0.9797979797979798 0.0
0.6565656565656568 -0.9797979797979798 0.0
0.6767676767676769 -0.9797979797979798 0.0
0.696969696969697 -0.9797979797979798 0.0
0.7171717171717173 -0.9797979797979798 0.0
0.7373737373737375 -0.9797979797979798 0.0
0.7575757575757578 -0.9797979797979798 0.0
0.7777777777777779 -0.9797979797979798 0.0
0.7979797979797982 -0.9797979797979798 0.0
0.8181818181818183 -0.9797979797979798 0.0
0.8383838383838385 -0.9797979797979798 0.0
0.8585858585858588 -0.9797979797979798 0.0
0.8787878787878789 -0.9797979797979798 0.0
0.8989898989898992 -0.9797979797979798 0.0
0.9191919191919193 -0.9797979797979798 0.0
0.9393939393939394 -0.9797979797979798 0.0
0.9595959595959598 -0.9797979797979798 0.0
0.9797979797979799 -0.9797979797979798 0.0
1.0 -0.9797979797979798 0.0
-1.0 -0.9595959595959596 0.0
-0.9797979797979798 -0.9595959595959596 0.0
-0.9595959595959596 -0.9595959595959596 0.0
-0.9393939393939394 -0.9595959595959596 0.0
-0.9191919191919192 -0.9595959595959596 0.0
-0.898989898989899 -0.9595959595959596 0.0
-0.8787878787878788 -0.9595959595959596 0.0
-0.8585858585858586 -0.9595959595959596 0.0
-0.8383838383838383 -0.9595959595959596 0.0
-0.8181818181818181 -0.9595959595959596 0.0
-0.797979797979798 -0.9595959595959596 0.0
-0.7777777777777778 -0.9595959595959596 0.0
-0.7575757575757576 -0.9595959595959596 0.0
-0.7373737373737373 -0.9595959595959596 0.0
-0.7171717171717171 -0.9595959595959596 0.0
-0.696969696969697 -0.9595959595959596 0.0
-0.6767676767676767 -0.9595959595959596 0.0
-0.6565656565656566 -0.9595959595959596 0.0
-0.6363636363636364 -0.9595959595959596 0.0
-0.6161616161616161 -0.9595959595959596 0.0
-0.5959595959595959 -0.9595959595959596 0.0
-0.5757575757575757 -0.9595959595959596 0.0
-0.5555555555555556 -0.9595959595959596 0.0
-0.5353535353535352 -0.9595959595959596 0.0
-0.5151515151515151 -0.9595959595959596 0.0
-0.4949494949494949 -0.9595959595959596 0.0
-0.4747474747474747 -0.9595959595959596 0.0
-0.4545454545454545 -0.9595959595959596 0.0
-0.43434343434343425 -0.9595959595959596 0.0
-0.41414141414141414 -0.9595959595959596 0.0
-0.3939393939393939 -0.9595959595959596 0.0
-0.3737373737373737 -0.9595959595959596 0.0
-0.3535353535353535 -0.9595959595959596 0.0
-0.33333333333333326 -0.9595959595959596 0.0
-0.31313131313131304 -0.9595959595959596 0.0
-0.2929292929292928 -0.9595959595959596 0.0
-0.2727272727272727 -0.9595959595959596 0.0
-0.2525252525252525 -0.9595959595959596 0.0
-0.23232323232323226 -0.9595959595959596 0.0
-0.21212121212121204 -0.9595959595959596 0.0
-0.19191919191919182 -0.9595959595959596 0.0
-0.1717171717171716 -0.9595959595959596 0.0
-0.1515151515151515 -0.9595959595959596 0.0
-0.13131313131313127 -0.9595959595959596 0.0
-0.11111111111111105 -0.9595959595959596 0.0
-0.09090909090909083 -0.9595959595959596 0.0
-0.07070707070707061 -0.9595959595959596 0.0
-0.050505050505050386 -0.9595959595959596 0.0
-0.030303030303030276 -0.9595959595959596 0.0
-0.010101010101010055 -0.9595959595959596 0.0
0.010101010101010166 -0.9595959595959596 0.0
0.030303030303030498 -0.9595959595959596 0.0
0.05050505050505061 -0.9595959595959596 0.0
0.07070707070707072 -0.9595959595959596 0.0
0.09090909090909105 -0.9595959595959596 0.0
0.11111111111111116 -0.9595959595959596 0.0
0.1313131313131315 -0.9595959595959596 0.0
0.1515151515151516 -0.9595959595959596 0.0
0.1717171717171717 -0.9595959595959596 0.0
0.19191919191919204 -0.9595959595959596 0.0
0.21212121212121215 -0.9595959595959596 0.0
[...]
POINT_DATA 10000
SCALARS u float 1
LOOKUP_TABLE default
3.4749507904052734e-05
3.1188130378723145e-05
2.841651439666748e-05
2.6300549507141113e-05
2.485513687133789e-05
2.403557300567627e-05
2.3826956748962402e-05
2.4050474166870117e-05
2.485513687133789e-05
2.6047229766845703e-05
2.7552247047424316e-05
2.9474496841430664e-05
3.159046173095703e-05
3.400444984436035e-05
3.650784492492676e-05
3.916025161743164e-05
4.178285598754883e-05
4.445016384124756e-05
4.6953558921813965e-05
4.939734935760498e-05
5.1528215408325195e-05
5.3435564041137695e-05
5.505979061126709e-05
5.62816858291626e-05
5.716085433959961e-05
5.765259265899658e-05
5.768239498138428e-05
5.741417407989502e-05
5.672872066497803e-05
5.5730342864990234e-05
5.455315113067627e-05
5.307793617248535e-05
5.143880844116211e-05
4.9740076065063477e-05
4.8041343688964844e-05
4.6253204345703125e-05
4.45246696472168e-05
4.2885541915893555e-05
4.13060188293457e-05
3.97413969039917e-05
3.819167613983154e-05
3.6582350730895996e-05
3.482401371002197e-05
3.288686275482178e-05
3.063678741455078e-05
2.7894973754882812e-05
2.4706125259399414e-05
2.0802021026611328e-05
1.615285873413086e-05
1.0862946510314941e-05
4.798173904418945e-06
-2.041459083557129e-06
-9.521842002868652e-06
-1.74790620803833e-05
-2.5838613510131836e-05
-3.4436583518981934e-05
-4.3004751205444336e-05
-5.124509334564209e-05
-5.914270877838135e-05
-6.6414475440979e-05
-7.306039333343506e-05
-7.887184619903564e-05
-8.390843868255615e-05
-8.822977542877197e-05
-9.194016456604004e-05
-9.50843095779419e-05
-9.78708267211914e-05
-0.00010044872760772705
-0.00010293722152709961
-0.00010545551776885986
-0.0001080632209777832
-0.00011073052883148193
-0.00011356174945831299
-0.00011642277240753174
-0.00011923909187316895
-0.00012198090553283691
-0.00012455880641937256
-0.00012677907943725586
-0.00012883543968200684
-0.00013048946857452393
-0.000131949782371521
-0.0001332312822341919
-0.0001344531774520874
-0.0001356750726699829
-0.0001370459794998169
-0.00013870000839233398
-0.00014063715934753418
-0.0001431107521057129
-0.00014603137969970703
-0.0001493990421295166
-0.0001532137393951416
-0.00015747547149658203
-0.0001621246337890625
-0.000166967511177063
-0.0001719743013381958
-0.0001771003007888794
-0.00018215179443359375
-0.00018703937530517578
-0.00019165873527526855
-0.00019598007202148438
3.758072853088379e-05
3.451108932495117e-05
3.218650817871094e-05
3.0606985092163086e-05
2.962350845336914e-05
2.92360782623291e-05
2.944469451904297e-05
3.0174851417541504e-05
3.1322240829467773e-05
3.2961368560791016e-05
3.485381603240967e-05
3.711879253387451e-05
3.962218761444092e-05
4.2319297790527344e-05
4.51207160949707e-05
4.798173904418945e-05
5.08427619934082e-05
5.364418029785156e-05
5.632638931274414e-05
5.8770179748535156e-05
6.0930848121643066e-05
6.279349327087402e-05
6.420910358428955e-05
6.51925802230835e-05
6.565451622009277e-05
6.574392318725586e-05
6.538629531860352e-05
6.452202796936035e-05
6.32256269454956e-05
6.16908073425293e-05
5.981326103210449e-05
5.774199962615967e-05
5.56260347366333e-05
5.336105823516846e-05
5.1155686378479004e-05
4.9054622650146484e-05
4.70578670501709e-05
4.5239925384521484e-05
4.361569881439209e-05
4.209578037261963e-05
4.073977470397949e-05
3.9383769035339355e-05
3.8057565689086914e-05
3.661215305328369e-05
3.49581241607666e-05
3.293156623840332e-05
3.0517578125e-05
2.753734588623047e-05
2.3886561393737793e-05
1.93864107131958e-05
1.4171004295349121e-05
8.091330528259277e-06
1.2665987014770508e-06
-6.22868537902832e-06
-1.430511474609375e-05
-2.275407314300537e-05
-3.127753734588623e-05
-3.972649574279785e-05
-4.787743091583252e-05
-5.535781383514404e-05
-6.215274333953857e-05
-6.811320781707764e-05
-7.316470146179199e-05
-7.738173007965088e-05
-8.080899715423584e-05
-8.35806131362915e-05
-8.596479892730713e-05
-8.811056613922119e-05
-9.022653102874756e-05
-9.238719940185547e-05
-9.486079216003418e-05
-9.763240814208984e-05
-0.00010076165199279785
-0.00010411441326141357
-0.00010769069194793701
-0.00011132657527923584
-0.00011487305164337158
-0.0001182854175567627
-0.00012139976024627686
-0.00012415647506713867
-0.0001265406608581543
-0.0001287311315536499
-0.00013065338134765625
-0.00013241171836853027
-0.000134199857711792
-0.0001361072063446045
-0.00013828277587890625
-0.00014075636863708496
-0.0001436173915863037
-0.00014691054821014404
-0.0001506507396697998
-0.0001547783613204956
-0.0001592189073562622
-0.00016401708126068115
-0.00016891956329345703
-0.00017392635345458984
-0.00017887353897094727
-0.0001837313175201416
-0.00018833577632904053
-0.00019265711307525635
4.030764102935791e-05
3.769993782043457e-05
3.577768802642822e-05
3.454089164733887e-05
3.3915042877197266e-05
3.394484519958496e-05
3.4481287002563477e-05
3.555417060852051e-05
3.698468208312988e-05
3.8877129554748535e-05
4.1112303733825684e-05
4.357099533081055e-05
4.628300666809082e-05
4.920363426208496e-05
5.2168965339660645e-05
5.525350570678711e-05
5.823373794555664e-05
6.112456321716309e-05
6.376206874847412e-05
6.620585918426514e-05
6.829202175140381e-05
6.99758529663086e-05
7.121264934539795e-05
7.18533992767334e-05
7.200241088867188e-05
7.161498069763184e-05
7.070600986480713e-05
6.927549839019775e-05
6.744265556335449e-05
6.529688835144043e-05
6.286799907684326e-05
6.020069122314453e-05
5.748867988586426e-05
5.480647087097168e-05
5.219876766204834e-05
4.976987838745117e-05
4.756450653076172e-05
4.564225673675537e-05
4.3973326683044434e-05
4.2572617530822754e-05
4.1350722312927246e-05
4.03672456741333e-05
3.950297832489014e-05
3.857910633087158e-05
3.7550926208496094e-05
3.6329030990600586e-05
3.476440906524658e-05
3.269314765930176e-05
2.98917293548584e-05
2.6524066925048828e-05
2.232193946838379e-05
1.7195940017700195e-05
1.1160969734191895e-05
4.306435585021973e-06
-3.2186508178710938e-06
-1.1324882507324219e-05
-1.96993350982666e-05
-2.8133392333984375e-05
-3.6329030990600586e-05
-4.4032931327819824e-05
-5.094707012176514e-05
-5.6996941566467285e-05
-6.20037317276001e-05
-6.607174873352051e-05
-6.914138793945312e-05
-7.155537605285645e-05
-7.334351539611816e-05
-7.487833499908447e-05
-7.641315460205078e-05
-7.811188697814941e-05
-8.033215999603271e-05
-8.296966552734375e-05
-8.623301982879639e-05
-8.9988112449646e-05
-9.426474571228027e-05
-9.876489639282227e-05
-0.00010336935520172119
-0.00010794401168823242
-0.000112190842628479
-0.00011616945266723633
-0.00011973083019256592
-0.00012287497520446777
-0.00012572109699249268
-0.0001281648874282837
-0.00013056397438049316
-0.00013284385204315186
-0.00013530254364013672
-0.0001379251480102539
-0.0001408308744430542
-0.00014416873455047607
-0.0001478344202041626
-0.000151902437210083
-0.00015628337860107422
-0.0001608431339263916
-0.00016570091247558594
-0.0001706331968307495
-0.00017555058002471924
-0.00018040835857391357
-0.0001850426197052002
-0.0001893937587738037
4.285573959350586e-05
4.054605960845947e-05
3.8996338844299316e-05
3.796815872192383e-05
3.7670135498046875e-05
3.790855407714844e-05
3.869831562042236e-05
3.993511199951172e-05
4.1604042053222656e-05
4.3585896492004395e-05
4.595518112182617e-05
4.857778549194336e-05
5.136430263519287e-05
5.43445348739624e-05
5.7443976402282715e-05
6.048381328582764e-05
6.347894668579102e-05
6.636977195739746e-05
6.902217864990234e-05
7.131695747375488e-05
7.323920726776123e-05
7.471442222595215e-05
7.56978988647461e-05
7.60108232498169e-05
7.575750350952148e-05
7.490813732147217e-05
7.346272468566895e-05
7.15404748916626e-05
6.917119026184082e-05
6.64442777633667e-05
6.344914436340332e-05
6.031990051269531e-05
5.716085433959961e-05
5.412101745605469e-05
5.125999450683594e-05
4.8667192459106445e-05
4.64022159576416e-05
4.44948673248291e-05
4.2945146560668945e-05
4.1857361793518066e-05
4.1037797927856445e-05
4.044175148010254e-05
4.0084123611450195e-05
3.9905309677124023e-05
3.9696693420410156e-05
3.927946090698242e-05
3.8623809814453125e-05
3.758072853088379e-05
3.5956501960754395e-05
3.37064266204834e-05
3.0517578125e-05
2.6404857635498047e-05
2.1383166313171387e-05
1.5243887901306152e-05
8.240342140197754e-06
5.364418029785156e-07
-7.763504981994629e-06
-1.6286969184875488e-05
-2.466142177581787e-05
-3.260374069213867e-05
-3.978610038757324e-05
-4.5999884605407715e-05
-5.111098289489746e-05
-5.501508712768555e-05
-5.793571472167969e-05
-5.9857964515686035e-05
-6.109476089477539e-05
-6.198883056640625e-05
-6.280839443206787e-05
-6.392598152160645e-05
-6.562471389770508e-05
-6.799399852752686e-05
-7.113814353942871e-05
-7.511675357818604e-05
-7.98255205154419e-05
-8.504092693328857e-05
-9.059906005859375e-05
-9.629130363464355e-05
-0.00010178983211517334
-0.00010697543621063232
-0.00011172890663146973
-0.00011599063873291016
-0.00011977553367614746
-0.0001230984926223755
-0.0001261681318283081
-0.00012902915477752686
-0.00013177096843719482
-0.00013469159603118896
-0.00013771653175354004
-0.00014115869998931885
-0.00014472007751464844
-0.0001487433910369873
-0.00015306472778320312
-0.00015760958194732666
-0.00016242265701293945
-0.00016729533672332764
-0.0001722276210784912
-0.00017705559730529785
-0.00018173456192016602
-0.00018611550331115723
4.509091377258301e-05
4.3004751205444336e-05
4.1618943214416504e-05
4.082918167114258e-05
4.07099723815918e-05
4.108250141143799e-05
4.2051076889038086e-05
4.3272972106933594e-05
4.495680332183838e-05
4.70578670501709e-05
4.932284355163574e-05
5.194544792175293e-05
5.4717063903808594e-05
5.762279033660889e-05
6.0558319091796875e-05
6.355345249176025e-05
6.648898124694824e-05
6.920099258422852e-05
7.171928882598877e-05
7.383525371551514e-05
7.550418376922607e-05
7.669627666473389e-05
7.732212543487549e-05
7.727742195129395e-05
7.66366720199585e-05
7.537007331848145e-05
7.34478235244751e-05
7.100403308868408e-05
6.815791130065918e-05
6.496906280517578e-05
6.155669689178467e-05
5.812942981719971e-05
5.4717063903808594e-05
5.143880844116211e-05
4.857778549194336e-05
4.607439041137695e-05
4.3973326683044434e-05
4.2378902435302734e-05
4.1365623474121094e-05
4.075467586517334e-05
4.069507122039795e-05
4.100799560546875e-05
4.158914089202881e-05
4.233419895172119e-05
4.3272972106933594e-05
4.4092535972595215e-05
4.476308822631836e-05
4.507601261138916e-05
4.482269287109375e-05
4.38690185546875e-05
4.1991472244262695e-05
3.905594348907471e-05
3.49581241607666e-05
2.9593706130981445e-05
2.2962689399719238e-05
1.5333294868469238e-05
6.854534149169922e-06
-2.175569534301758e-06
-1.125037670135498e-05
-1.9937753677368164e-05
-2.796947956085205e-05
-3.489851951599121e-05
-4.057586193084717e-05
-4.48375940322876e-05
-4.774332046508789e-05
-4.9501657485961914e-05
-5.035102367401123e-05
-5.0693750381469727e-05
-5.079805850982666e-05
-5.120038986206055e-05
-5.2168965339660645e-05
-5.398690700531006e-05
-5.678832530975342e-05
-6.070733070373535e-05
-6.559491157531738e-05
-7.134675979614258e-05
-7.759034633636475e-05
-8.417665958404541e-05
-9.077787399291992e-05
-9.712576866149902e-05
-0.00010298192501068115
-0.00010839104652404785
-0.00011320412158966064
-0.00011748075485229492
-0.00012123584747314453
-0.00012467801570892334
-0.00012788176536560059
-0.00013114511966705322
-0.00013431906700134277
-0.00013782083988189697
-0.00014153122901916504
-0.0001455247402191162
-0.00014978647232055664
-0.00015431642532348633
-0.00015908479690551758
-0.00016388297080993652
-0.0001688152551651001
-0.00017371773719787598
-0.0001783818006515503
-0.0001828521490097046
4.696846008300781e-05
4.501640796661377e-05
4.3764710426330566e-05
4.3064355850219727e-05
4.298985004425049e-05
4.340708255767822e-05
4.4286251068115234e-05
4.552304744720459e-05
4.711747169494629e-05
4.902482032775879e-05
5.124509334564209e-05
5.367398262023926e-05
5.6236982345581055e-05
5.888938903808594e-05
6.16908073425293e-05
6.441771984100342e-05
6.711483001708984e-05
6.955862045288086e-05
7.174909114837646e-05
7.356703281402588e-05
7.495284080505371e-05
7.580220699310303e-05
7.60108232498169e-05
7.559359073638916e-05
7.453560829162598e-05
7.280707359313965e-05
7.051229476928711e-05
6.765127182006836e-05
6.441771984100342e-05
6.0930848121643066e-05
5.7324767112731934e-05
5.377829074859619e-05
5.035102367401123e-05
4.731118679046631e-05
4.4673681259155273e-05
4.2572617530822754e-05
4.118680953979492e-05
4.03672456741333e-05
4.029273986816406e-05
4.075467586517334e-05
4.1991472244262695e-05
4.3705105781555176e-05
4.5999884605407715e-05
4.8547983169555664e-05
5.1394104957580566e-05
5.429983139038086e-05
5.7131052017211914e-05
5.961954593658447e-05
6.151199340820312e-05
6.258487701416016e-05
6.258487701416016e-05
6.115436553955078e-05
5.811452865600586e-05
5.336105823516846e-05
4.6819448471069336e-05
3.8623809814453125e-05
2.911686897277832e-05
1.8596649169921875e-05
7.748603820800781e-06
-3.039836883544922e-06
-1.3127923011779785e-05
-2.2009015083312988e-05
-2.9355287551879883e-05
-3.49581241607666e-05
-3.8817524909973145e-05
-4.112720489501953e-05
-4.2051076889038086e-05
-4.209578037261963e-05
-4.176795482635498e-05
-4.141032695770264e-05
-4.1604042053222656e-05
-4.264712333679199e-05
-4.48375940322876e-05
-4.826486110687256e-05
-5.300343036651611e-05
-5.879998207092285e-05
-6.541609764099121e-05
-7.261335849761963e-05
-8.001923561096191e-05
-8.736550807952881e-05
-9.426474571228027e-05
-0.00010065734386444092
-0.00010642409324645996
-0.00011150538921356201
-0.00011605024337768555
-0.00012005865573883057
-0.00012379884719848633
-0.00012731552124023438
-0.00013083219528198242
-0.000134393572807312
-0.00013816356658935547
-0.00014212727546691895
-0.00014638900756835938
-0.0001509338617324829
-0.00015561282634735107
-0.00016048550605773926
-0.00016532838344573975
-0.00017026066780090332
-0.00017502903938293457
-0.0001796036958694458
4.838407039642334e-05
4.653632640838623e-05
4.532933235168457e-05
4.4733285903930664e-05
4.458427429199219e-05
4.489719867706299e-05
4.565715789794922e-05
4.67151403427124e-05
4.808604717254639e-05
4.976987838745117e-05
5.167722702026367e-05
5.377829074859619e-05
5.59687614440918e-05
5.8323144912719727e-05
6.070733070373535e-05
6.301701068878174e-05
6.529688835144043e-05
6.739795207977295e-05
6.917119026184082e-05
7.05718994140625e-05
7.160007953643799e-05
7.192790508270264e-05
7.174909114837646e-05
7.089972496032715e-05
6.942451000213623e-05
6.730854511260986e-05
6.465613842010498e-05
6.155669689178467e-05
5.81592321395874e-05
5.462765693664551e-05
5.109608173370361e-05
4.772841930389404e-05
4.468858242034912e-05
4.220008850097656e-05
4.0337443351745605e-05
3.9204955101013184e-05
3.892183303833008e-05
3.948807716369629e-05
4.1037797927856445e-05
4.3526291847229004e-05
4.684925079345703e-05
5.112588405609131e-05
5.6162476539611816e-05
6.19739294052124e-05
6.823241710662842e-05
7.490813732147217e-05
8.150935173034668e-05
8.790194988250732e-05
9.365379810333252e-05
9.827315807342529e-05
0.00010138750076293945
0.00010246038436889648
0.00010113418102264404
9.711086750030518e-05
9.016692638397217e-05
8.057057857513428e-05
6.861984729766846e-05
5.480647087097168e-05
3.9890408515930176e-05
2.4750828742980957e-05
1.0266900062561035e-05
-2.9206275939941406e-06
-1.4156103134155273e-05
-2.32011079788208e-05
-2.9653310775756836e-05
-3.394484519958496e-05
-3.619492053985596e-05
-3.6835670471191406e-05
-3.656744956970215e-05
-3.579258918762207e-05
-3.536045551300049e-05
-3.553926944732666e-05
-3.6850571632385254e-05
-3.9443373680114746e-05
-4.357099533081055e-05
-4.8995018005371094e-05
-5.549192428588867e-05
-6.283819675445557e-05
-7.061660289764404e-05
-7.852911949157715e-05
-8.6173415184021e-05
-9.338557720184326e-05
-9.988248348236084e-05
-0.00010573863983154297
-0.0001109391450881958
-0.00011548399925231934
-0.00011965632438659668
-0.00012350082397460938
-0.0001272261142730713
-0.0001309216022491455
-0.0001347661018371582
-0.00013878941535949707
-0.00014297664165496826
-0.00014750659465789795
-0.00015215575695037842
-0.0001570284366607666
-0.00016194581985473633
-0.00016686320304870605
-0.0001716911792755127
-0.00017631053924560547
4.9442052841186523e-05
4.76837158203125e-05
4.6446919441223145e-05
4.573166370391846e-05
4.547834396362305e-05
4.5627355575561523e-05
4.614889621734619e-05
4.693865776062012e-05
4.8041343688964844e-05
4.932284355163574e-05
5.08427619934082e-05
5.24669885635376e-05
5.416572093963623e-05
5.5983662605285645e-05
5.7816505432128906e-05
5.961954593658447e-05
6.140768527984619e-05
6.288290023803711e-05
6.414949893951416e-05
6.507337093353271e-05
6.55055046081543e-05
6.546080112457275e-05
6.471574306488037e-05
6.347894668579102e-05
6.16312026977539e-05
5.9232115745544434e-05
5.6356191635131836e-05
5.3241848945617676e-05
4.99039888381958e-05
4.6581029891967773e-05
4.3451786041259766e-05
4.073977470397949e-05
3.860890865325928e-05
3.72081995010376e-05
3.664195537567139e-05
3.7103891372680664e-05
3.869831562042236e-05
4.149973392486572e-05
4.559755325317383e-05
5.1021575927734375e-05
5.790591239929199e-05
6.623566150665283e-05
7.60108232498169e-05
8.709728717803955e-05
9.934604167938232e-05
0.00011247396469116211
0.00012606382369995117
0.000139579176902771
0.00015236437320709229
0.00016364455223083496
0.00017267465591430664
0.00017851591110229492
0.00018046796321868896
0.00017790496349334717
0.00017061829566955566
0.00015841424465179443
0.00014188885688781738
0.00012186169624328613
9.948015213012695e-05
7.596611976623535e-05
5.2735209465026855e-05
3.106892108917236e-05
1.189112663269043e-05
-4.06801700592041e-06
-1.65402889251709e-05
-2.543628215789795e-05
-3.11732292175293e-05
-3.4302473068237305e-05
-3.524124622344971e-05
-3.503262996673584e-05
-3.431737422943115e-05
-3.390014171600342e-05
-3.4168362617492676e-05
-3.571808338165283e-05
-3.869831562042236e-05
-4.318356513977051e-05
-4.9054622650146484e-05
-5.59687614440918e-05
-6.364285945892334e-05
-7.165968418121338e-05
-7.960200309753418e-05
-8.717179298400879e-05
-9.424984455108643e-05
-0.00010065734386444092
-0.00010634958744049072
-0.00011129677295684814
-0.00011582672595977783
-0.00011990964412689209
-0.00012378394603729248
-0.00012759864330291748
-0.00013144314289093018
-0.00013546645641326904
-0.0001396387815475464
-0.000144079327583313
-0.000148773193359375
-0.0001535862684249878
-0.00015850365161895752
-0.00016352534294128418
-0.0001684427261352539
-0.00017315149307250977
5.017220973968506e-05
4.8413872718811035e-05
4.7072768211364746e-05
4.628300666809082e-05
4.583597183227539e-05
4.576146602630615e-05
4.597008228302002e-05
4.6387314796447754e-05
4.70578670501709e-05
4.7847628593444824e-05
4.883110523223877e-05
4.984438419342041e-05
5.100667476654053e-05
5.218386650085449e-05
5.3375959396362305e-05
5.4508447647094727e-05
5.556643009185791e-05
5.646049976348877e-05
5.708634853363037e-05
5.7384371757507324e-05
5.723536014556885e-05
5.65946102142334e-05
5.549192428588867e-05
5.385279655456543e-05
5.1721930503845215e-05
4.9173831939697266e-05
4.634261131286621e-05
4.336237907409668e-05
4.045665264129639e-05
3.7804245948791504e-05
3.5569071769714355e-05
3.400444984436035e-05
3.333389759063721e-05
3.3468008041381836e-05
3.501772880554199e-05
3.784894943237305e-05
4.2125582695007324e-05
4.8100948333740234e-05
5.599856376647949e-05
6.592273712158203e-05
7.814168930053711e-05
9.28044319152832e-05
0.00011007487773895264
0.00012984871864318848
0.00015200674533843994
0.00017623603343963623
0.0002018064260482788
0.00022801756858825684
0.0002535581588745117
0.0002772212028503418
0.0002974867820739746
0.00031280517578125
0.00032164156436920166
0.000322878360748291
0.0003158003091812134
0.00030003488063812256
0.00027635693550109863
0.000245898962020874
0.0002104341983795166
0.00017209351062774658
0.00013324618339538574
9.59932804107666e-05
6.206333637237549e-05
3.2782554626464844e-05
8.732080459594727e-06
-9.700655937194824e-06
-2.2932887077331543e-05
-3.1501054763793945e-05
-3.631412982940674e-05
-3.8236379623413086e-05
-3.851950168609619e-05
-3.7983059883117676e-05
-3.764033317565918e-05
-3.7983059883117676e-05
-3.9577484130859375e-05
-4.272162914276123e-05
-4.728138446807861e-05
-5.313754081726074e-05
-6.000697612762451e-05