# vtk DataFile Version 3.0
2D PINN Solution
ASCII
DATASET STRUCTURED_GRID
DIMENSIONS 100 100 1
POINTS 10000 float
-1.0 -1.0 0.0
-0.9797979797979798 -1.0 0.0
-0.9595959595959596 -1.0 0.0
-0.9393939393939394 -1.0 0.0
-0.9191919191919192 -1.0 0.0
-0.898989898989899 -1.0 0.0
-0.8787878787878788 -1.0 0.0
-0.8585858585858586 -1.0 0.0
-0.8383838383838383 -1.0 0.0
-0.8181818181818181 -1.0 0.0
-0.797979797979798 -1.0 0.0
-0.7777777777777778 -1.0 0.0
-0.7575757575757576 -1.0 0.0
-0.7373737373737373 -1.0 0.0
-0.7171717171717171 -1.0 0.0
-0.696969696969697 -1.0 0.0
-0.6767676767676767 -1.0 0.0
-0.6565656565656566 -1.0 0.0
-0.6363636363636364 -1.0 0.0
-0.6161616161616161 -1.0 0.0
-0.5959595959595959 -1.0 0.0
-0.5757575757575757 -1.0 0.0
-0.5555555555555556 -1.0 0.0
-0.5353535353535352 -1.0 0.0
-0.5151515151515151 -1.0 0.0
-0.4949494949494949 -1.0 0.0
-0.4747474747474747 -1.0 0.0
-0.4545454545454545 -1.0 0.0
-0.43434343434343425 -1.0 0.0
-0.41414141414141414 -1.0 0.0
-0.3939393939393939 -1.0 0.0
-0.3737373737373737 -1.0 0.0
-0.3535353535353535 -1.0 0.0
-0.33333333333333326 -1.0 0.0
-0.31313131313131304 -1.0 0.0
-0.2929292929292928 -1.0 0.0
-0.2727272727272727 -1.0 0.0
-0.2525252525252525 -1.0 0.0
-0.23232323232323226 -1.0 0.0
-0.21212121212121204 -1.0 0.0
-0.19191919191919182 -1.0 0.0
-0.1717171717171716 -1.0 0.0
-0.1515151515151515 -1.0 0.0
-0.13131313131313127 -1.0 0.0
-0.11111111111111105 -1.0 0.0
-0.09090909090909083 -1.0 0.0
-0.07070707070707061 -1.0 0.0
-0.050505050505050386 -1.0 0.0
-0.030303030303030276 -1.0 0.0
-0.010101010101010055 -1.0 0.0
0.010101010101010166 -1.0 0.0
0.030303030303030498 -1.0 0.0
0.05050505050505061 -1.0 0.0
0.07070707070707072 -1.0 0.0
0.09090909090909105 -1.0 0.0
0.11111111111111116 -1.0 0.0
0.1313131313131315 -1.0 0.0
0.1515151515151516 -1.0 0.0
0.1717171717171717 -1.0 0.0
0.19191919191919204 -1.0 0.0
0.21212121212121215 -1.0 0.0
0.2323232323232325 -1.0 0.0
0.2525252525252526 -1.0 0.0
0.27272727272727293 -1.0 0.0
0.29292929292929304 -1.0 0.0
0.31313131313131315 -1.0 0.0
0.3333333333333335 -1.0 0.0
0.3535353535353536 -1.0 0.0
0.3737373737373739 -1.0 0.0
0.39393939393939403 -1.0 0.0
0.41414141414141437 -1.0 0.0
0.4343434343434345 -1.0 0.0
0.4545454545454546 -1.0 0.0
0.4747474747474749 -1.0 0.0
0.49494949494949503 -1.0 0.0
0.5151515151515154 -1.0 0.0
0.5353535353535355 -1.0 0.0
0.5555555555555556 -1.0 0.0
0.5757575757575759 -1.0 0.0
0.595959595959596 -1.0 0.0
0.6161616161616164 -1.0 0.0
0.6363636363636365 -1.0 0.0
0.6565656565656568 -1.0 0.0
0.6767676767676769 -1.0 0.0
0.696969696969697 -1.0 0.0
0.7171717171717173 -1.0 0.0
0.7373737373737375 -1.0 0.0
0.7575757575757578 -1.0 0.0
0.7777777777777779 -1.0 0.0
0.7979797979797982 -1.0 0.0
0.8181818181818183 -1.0 0.0
0.8383838383838385 -1.0 0.0
0.8585858585858588 -1.0 0.0
0.8787878787878789 -1.0 0.0
0.8989898989898992 -1.0 0.0
0.9191919191919193 -1.0 0.0
0.9393939393939394 -1.0 0.0
0.9595959595959598 -1.0 0.0
0.9797979797979799 -1.0 0.0
1.0 -1.0 0.0
-1.0 -0.9797979797979798 0.0
-0.9797979797979798 -0.9797979797979798 0.0
-0.9595959595959596 -0.9797979797979798 0.0
-0.9393939393939394 -0.9797979797979798 0.0
-0.9191919191919192 -0.9797979797979798 0.0
-0.898989898989899 -0.9797979797979798 0.0
-0.8787878787878788 -0.9797979797979798 0.0
-0.8585858585858586 -0.9797979797979798 0.0
-0.8383838383838383 -0.9797979797979798 0.0
-0.8181818181818181 -0.9797979797979798 0.0
-0.797979797979798 -0.9797979797979798 0.0
-0.7777777777777778 -0.9797979797979798 0.0
-0.7575757575757576 -0.9797979797979798 0.0
-0.7373737373737373 -0.9797979797979798 0.0
-0.7171717171717171 -0.9797979797979798 0.0
-0.696969696969697 -0.9797979797979798 0.0
-0.6767676767676767 -0.9797979797979798 0.0
-0.6565656565656566 -0.9797979797979798 0.0
-0.6363636363636364 -0.9797979797979798 0.0
-0.6161616161616161 -0.9797979797979798 0.0
-0.5959595959595959 -0.9797979797979798 0.0
-0.5757575757575757 -0.9797979797979798 0.0
-0.5555555555555556 -0.9797979797979798 0.0
-0.5353535353535352 -0.9797979797979798 0.0
-0.5151515151515151 -0.9797979797979798 0.0
-0.4949494949494949 -0.9797979797979798 0.0
-0.4747474747474747 -0.9797979797979798 0.0
-0.4545454545454545 -0.9797979797979798 0.0
-0.43434343434343425 -0.9797979797979798 0.0
-0.41414141414141414 -0.9797979797979798 0.0
-0.3939393939393939 -0.9797979797979798 0.0
-0.3737373737373737 -0.9797979797979798 0.0
-0.3535353535353535 -0.9797979797979798 0.0
-0.33333333333333326 -0.9797979797979798 0.0
-0.31313131313131304 -0.9797979797979798 0.0
-0.2929292929292928 -0.9797979797979798 0.0
-0.2727272727272727 -0.9797979797979798 0.0
-0.2525252525252525 -0.9797979797979798 0.0
-0.23232323232323226 -0.9797979797979798 0.0
-0.21212121212121204 -0.9797979797979798 0.0
-0.19191919191919182 -0.9797979797979798 0.0
-0.1717171717171716 -0.9797979797979798 0.0
-0.1515151515151515 -0.9797979797979798 0.0
-0.13131313131313127 -0.9797979797979798 0.0
-0.11111111111111105 -0.9797979797979798 0.0
-0.09090909090909083 -0.9797979797979798 0.0
-0.07070707070707061 -0.9797979797979798 0.0
-0.050505050505050386 -0.9797979797979798 0.0
-0.030303030303030276 -0.9797979797979798 0.0
-0.010101010101010055 -0.9797979797979798 0.0
0.010101010101010166 -0.9797979797979798 0.0
0.030303030303030498 -0.9797979797979798 0.0
0.05050505050505061 -0.9797979797979798 0.0
0.07070707070707072 -0.9797979797979798 0.0
0.09090909090909105 -0.9797979797979798 0.0
0.11111111111111116 -0.9797979797979798 0.0
0.1313131313131315 -0.9797979797979798 0.0
0.1515151515151516 -0.9797979797979798 0.0
0.1717171717171717 -0.9797979797979798 0.0
0.19191919191919204 -0.9797979797979798 0.0
0.21212121212121215 -0.9797979797979798 0.0
0.2323232323232325 -0.9797979797979798 0.0
0.2525252525252526 -0.9797979797979798 0.0
0.27272727272727293 -0.9797979797979798 0.0
0.29292929292929304 -0.9797979797979798 0.0
0.31313131313131315 -0.9797979797979798 0.0
0.3333333333333335 -0.9797979797979798 0.0
0.3535353535353536 -0.9797979797979798 0.0
0.3737373737373739 -0.9797979797979798 0.0
0.39393939393939403 -0.9797979797979798 0.0
0.41414141414141437 -0.9797979797979798 0.0
0.4343434343434345 -0.9797979797979798 0.0
0.4545454545454546 -0.9797979797979798 0.0
0.4747474747474749 -0.9797979797979798 0.0
0.49494949494949503 -0.9797979797979798 0.0
0.5151515151515154 -0.9797979797979798 0.0
0.5353535353535355 -0.9797979797979798 0.0
0.5555555555555556 -0.9797979797979798 0.0
0.5757575757575759 -0.9797979797979798 0.0
0.595959595959596 -0.9797979797979798 0.0
0.6161616161616164 -0.9797979797979798 0.0
0.6363636363636365 -0.9797979797979798 0.0
0.6565656565656568 -0.9797979797979798 0.0
0.6767676767676769 -0.9797979797979798 0.0
0.696969696969697 -0.9797979797979798 0.0
0.7171717171717173 -0.9797979797979798 0.0
0.7373737373737375 -0.9797979797979798 0.0
0.7575757575757578 -0.9797979797979798 0.0
0.7777777777777779 -0.9797979797979798 0.0
0.7979797979797982 -0.9797979797979798 0.0
0.8181818181818183 -0.9797979797979798 0.0
0.8383838383838385 -0.9797979797979798 0.0
0.8585858585858588 -0.9797979797979798 0.0
0.8787878787878789 -0.9797979797979798 0.0
0.8989898989898992 -0.9797979797979798 0.0
0.9191919191919193 -0.9797979797979798 0.0
0.9393939393939394 -0.9797979797979798 0.0
0.9595959595959598 -0.9797979797979798 0.0
0.9797979797979799 -0.9797979797979798 0.0
1.0 -0.9797979797979798 0.0
-1.0 -0.9595959595959596 0.0
-0.9797979797979798 -0.9595959595959596 0.0
-0.9595959595959596 -0.9595959595959596 0.0
-0.9393939393939394 -0.9595959595959596 0.0
-0.9191919191919192 -0.9595959595959596 0.0
-0.898989898989899 -0.9595959595959596 0.0
-0.8787878787878788 -0.9595959595959596 0.0
-0.8585858585858586 -0.9595959595959596 0.0
-0.8383838383838383 -0.9595959595959596 0.0
-0.8181818181818181 -0.9595959595959596 0.0
-0.797979797979798 -0.9595959595959596 0.0
-0.7777777777777778 -0.9595959595959596 0.0
-0.7575757575757576 -0.9595959595959596 0.0
-0.7373737373737373 -0.9595959595959596 0.0
-0.7171717171717171 -0.9595959595959596 0.0
-0.696969696969697 -0.9595959595959596 0.0
-0.6767676767676767 -0.9595959595959596 0.0
-0.6565656565656566 -0.9595959595959596 0.0
-0.6363636363636364 -0.9595959595959596 0.0
-0.6161616161616161 -0.9595959595959596 0.0
-0.5959595959595959 -0.9595959595959596 0.0
-0.5757575757575757 -0.9595959595959596 0.0
-0.5555555555555556 -0.9595959595959596 0.0
-0.5353535353535352 -0.9595959595959596 0.0
-0.5151515151515151 -0.9595959595959596 0.0
-0.4949494949494949 -0.9595959595959596 0.0
-0.4747474747474747 -0.9595959595959596 0.0
-0.4545454545454545 -0.9595959595959596 0.0
-0.43434343434343425 -0.9595959595959596 0.0
-0.41414141414141414 -0.9595959595959596 0.0
-0.3939393939393939 -0.9595959595959596 0.0
-0.3737373737373737 -0.9595959595959596 0.0
-0.3535353535353535 -0.9595959595959596 0.0
-0.33333333333333326 -0.9595959595959596 0.0
-0.31313131313131304 -0.9595959595959596 0.0
-0.2929292929292928 -0.9595959595959596 0.0
-0.2727272727272727 -0.9595959595959596 0.0
-0.2525252525252525 -0.9595959595959596 0.0
-0.23232323232323226 -0.9595959595959596 0.0
-0.21212121212121204 -0.9595959595959596 0.0
-0.19191919191919182 -0.9595959595959596 0.0
-0.1717171717171716 -0.9595959595959596 0.0
-0.1515151515151515 -0.9595959595959596 0.0
-0.13131313131313127 -0.9595959595959596 0.0
-0.11111111111111105 -0.9595959595959596 0.0
-0.09090909090909083 -0.9595959595959596 0.0
-0.07070707070707061 -0.9595959595959596 0.0
-0.050505050505050386 -0.9595959595959596 0.0
-0.030303030303030276 -0.9595959595959596 0.0
-0.010101010101010055 -0.9595959595959596 0.0
0.010101010101010166 -0.9595959595959596 0.0
0.030303030303030498 -0.9595959595959596 0.0
0.05050505050505061 -0.9595959595959596 0.0
0.07070707070707072 -0.9595959595959596 0.0
0.09090909090909105 -0.9595959595959596 0.0
0.11111111111111116 -0.9595959595959596 0.0
0.1313131313131315 -0.9595959595959596 0.0
0.1515151515151516 -0.9595959595959596 0.0
0.1717171717171717 -0.9595959595959596 0.0
0.19191919191919204 -0.9595959595959596 0.0
0.21212121212121215 -0.9595959595959596 0.0
[...]
POINT_DATA 10000
SCALARS u float 1
LOOKUP_TABLE default
2.849102020263672e-05
2.498924732208252e-05
2.2411346435546875e-05
2.0503997802734375e-05
1.9297003746032715e-05
1.8835067749023438e-05
1.8894672393798828e-05
1.944601535797119e-05
2.041459083557129e-05
2.1710991859436035e-05
2.32011079788208e-05
2.4840235710144043e-05
2.6553869247436523e-05
2.8192996978759766e-05
2.9578804969787598e-05
3.072619438171387e-05
3.14563512802124e-05
3.172457218170166e-05
3.153085708618164e-05
3.0681490898132324e-05
2.9206275939941406e-05
2.726912498474121e-05
2.466142177581787e-05
2.16066837310791e-05
1.8134713172912598e-05
1.4320015907287598e-05
1.0326504707336426e-05
6.198883056640625e-06
2.086162567138672e-06
-1.862645149230957e-06
-5.632638931274414e-06
-9.194016456604004e-06
-1.233816146850586e-05
-1.52587890625e-05
-1.7777085304260254e-05
-2.0042061805725098e-05
-2.2023916244506836e-05
-2.3931264877319336e-05
-2.5779008865356445e-05
-2.7626752853393555e-05
-2.9653310775756836e-05
-3.1813979148864746e-05
-3.4242868423461914e-05
-3.6910176277160645e-05
-3.981590270996094e-05
-4.291534423828125e-05
-4.614889621734619e-05
-4.935264587402344e-05
-5.2347779273986816e-05
-5.504488945007324e-05
-5.728006362915039e-05
-5.9023499488830566e-05
-6.008148193359375e-05
-6.045401096343994e-05
-6.0170888900756836e-05
-5.930662155151367e-05
-5.796551704406738e-05
-5.646049976348877e-05
-5.482137203216553e-05
-5.346536636352539e-05
-5.258619785308838e-05
-5.2362680435180664e-05
-5.315244197845459e-05
-5.494058132171631e-05
-5.786120891571045e-05
-6.189942359924316e-05
-6.698071956634521e-05
-7.286667823791504e-05
-7.940828800201416e-05
-8.633732795715332e-05
-9.323656558990479e-05
-9.992718696594238e-05
-0.00010620057582855225
-0.00011175870895385742
-0.00011658668518066406
-0.00012055039405822754
-0.0001236647367477417
-0.00012603402137756348
-0.00012780725955963135
-0.00012902915477752686
-0.00013005733489990234
-0.0001308917999267578
-0.00013184547424316406
-0.00013306736946105957
-0.0001345425844192505
-0.00013646483421325684
-0.0001389235258102417
-0.0001417696475982666
-0.00014516711235046387
-0.00014892220497131348
-0.00015302002429962158
-0.0001574009656906128
-0.00016203522682189941
-0.00016671419143676758
-0.00017136335372924805
-0.00017596781253814697
-0.00018033385276794434
-0.00018440186977386475
-0.0001881420612335205
-0.00019143521785736084
3.154575824737549e-05
2.8654932975769043e-05
2.6598572731018066e-05
2.530217170715332e-05
2.4721026420593262e-05
2.4825334548950195e-05
2.5466084480285645e-05
2.656877040863037e-05
2.8148293495178223e-05
2.9996037483215332e-05
3.203749656677246e-05
3.409385681152344e-05
3.618001937866211e-05
3.819167613983154e-05
3.984570503234863e-05
4.112720489501953e-05
4.1961669921875e-05
4.217028617858887e-05
4.184246063232422e-05
4.0724873542785645e-05
3.896653652191162e-05
3.649294376373291e-05
3.337860107421875e-05
2.969801425933838e-05
2.549588680267334e-05
2.110004425048828e-05
1.6376376152038574e-05
1.1622905731201172e-05
6.92903995513916e-06
2.4437904357910156e-06
-1.7285346984863281e-06
-5.498528480529785e-06
-8.866190910339355e-06
-1.1727213859558105e-05
-1.411139965057373e-05
-1.6108155250549316e-05
-1.774728298187256e-05
-1.9177794456481934e-05
-2.047419548034668e-05
-2.1725893020629883e-05
-2.3111701011657715e-05
-2.473592758178711e-05
-2.6613473892211914e-05
-2.8908252716064453e-05
-3.153085708618164e-05
-3.457069396972656e-05
-3.7863850593566895e-05
-4.13060188293457e-05
-4.489719867706299e-05
-4.83095645904541e-05
-5.14984130859375e-05
-5.424022674560547e-05
-5.640089511871338e-05
-5.796551704406738e-05
-5.888938903808594e-05
-5.917251110076904e-05
-5.88148832321167e-05
-5.8084726333618164e-05
-5.716085433959961e-05
-5.6236982345581055e-05
-5.556643009185791e-05
-5.5402517318725586e-05
-5.602836608886719e-05
-5.7563185691833496e-05
-6.00963830947876e-05
-6.379187107086182e-05
-6.845593452453613e-05
-7.399916648864746e-05
-8.025765419006348e-05
-8.694827556610107e-05
-9.383261203765869e-05
-0.00010062754154205322
-0.00010696053504943848
-0.00011271238327026367
-0.00011771917343139648
-0.00012186169624328613
-0.00012505054473876953
-0.0001275390386581421
-0.00012922286987304688
-0.00013044476509094238
-0.0001312941312789917
-0.00013193488121032715
-0.00013259053230285645
-0.00013342499732971191
-0.00013452768325805664
-0.0001360177993774414
-0.00013799965381622314
-0.00014050304889678955
-0.00014348328113555908
-0.00014682114124298096
-0.00015069544315338135
-0.0001547783613204956
-0.00015911459922790527
-0.00016364455223083496
-0.00016823410987854004
-0.00017274916172027588
-0.00017705559730529785
-0.0001811385154724121
-0.00018487870693206787
-0.00018821656703948975
3.4943222999572754e-05
3.2573938369750977e-05
3.100931644439697e-05
3.026425838470459e-05
3.026425838470459e-05
3.084540367126465e-05
3.2067298889160156e-05
3.375113010406494e-05
3.5762786865234375e-05
3.808736801147461e-05
4.062056541442871e-05
4.316866397857666e-05
4.571676254272461e-05
4.793703556060791e-05
4.9933791160583496e-05
5.1394104957580566e-05
5.233287811279297e-05
5.2541494369506836e-05
5.1975250244140625e-05
5.060434341430664e-05
4.844367504119873e-05
4.544854164123535e-05
4.175305366516113e-05
3.737211227416992e-05
3.2514333724975586e-05
2.7239322662353516e-05
2.1785497665405273e-05
1.6301870346069336e-05
1.0907649993896484e-05
5.841255187988281e-06
1.2367963790893555e-06
-2.9206275939941406e-06
-6.496906280517578e-06
-9.402632713317871e-06
-1.169741153717041e-05
-1.3470649719238281e-05
-1.4781951904296875e-05
-1.563131809234619e-05
-1.6301870346069336e-05
-1.6897916793823242e-05
-1.7568469047546387e-05
-1.8402934074401855e-05
-1.963973045349121e-05
-2.135336399078369e-05
-2.345442771911621e-05
-2.6181340217590332e-05
-2.9414892196655273e-05
-3.299117088317871e-05
-3.6969780921936035e-05
-4.0978193283081055e-05
-4.503130912780762e-05
-4.881620407104492e-05
-5.213916301727295e-05
-5.50001859664917e-05
-5.714595317840576e-05
-5.874037742614746e-05
-5.9604644775390625e-05
-5.9932470321655273e-05
-5.987286567687988e-05
-5.958974361419678e-05
-5.936622619628906e-05
-5.9470534324645996e-05
-6.015598773956299e-05
-6.145238876342773e-05
-6.376206874847412e-05
-6.701052188873291e-05
-7.127225399017334e-05
-7.645785808563232e-05
-8.2358717918396e-05
-8.879601955413818e-05
-9.545683860778809e-05
-0.00010214745998382568
-0.00010848045349121094
-0.00011426210403442383
-0.00011931359767913818
-0.00012353062629699707
-0.00012680888175964355
-0.00012931227684020996
-0.0001310110092163086
-0.00013208389282226562
-0.00013275444507598877
-0.00013309717178344727
-0.00013346970081329346
-0.0001339167356491089
-0.00013464689254760742
-0.00013574957847595215
-0.0001372694969177246
-0.00013931095600128174
-0.00014187395572662354
-0.0001448988914489746
-0.00014834105968475342
-0.00015217065811157227
-0.00015626847743988037
-0.0001606196165084839
-0.00016498565673828125
-0.00016942620277404785
-0.00017370283603668213
-0.00017783045768737793
-0.0001816004514694214
-0.00018502771854400635
3.847479820251465e-05
3.650784492492676e-05
3.540515899658203e-05
3.510713577270508e-05
3.55839729309082e-05
3.661215305328369e-05
3.828108310699463e-05
4.0411949157714844e-05
4.3004751205444336e-05
4.5806169509887695e-05
4.8741698265075684e-05
5.1721930503845215e-05
5.459785461425781e-05
5.720555782318115e-05
5.939602851867676e-05
6.102025508880615e-05
6.198883056640625e-05
6.218254566192627e-05
6.139278411865234e-05
5.97536563873291e-05
5.714595317840576e-05
5.359947681427002e-05
4.9248337745666504e-05
4.413723945617676e-05
3.847479820251465e-05
3.24249267578125e-05
2.613663673400879e-05
1.9818544387817383e-05
1.3753771781921387e-05
8.106231689453125e-06
2.9355287551879883e-06
-1.519918441772461e-06
-5.260109901428223e-06
-8.165836334228516e-06
-1.0386109352111816e-05
-1.1771917343139648e-05
-1.2546777725219727e-05
-1.2814998626708984e-05
-1.2665987014770508e-05
-1.233816146850586e-05
-1.2025237083435059e-05
-1.1861324310302734e-05
-1.2129545211791992e-05
-1.290440559387207e-05
-1.430511474609375e-05
-1.65402889251709e-05
-1.9550323486328125e-05
-2.321600914001465e-05
-2.752244472503662e-05
-3.229081630706787e-05
-3.732740879058838e-05
-4.228949546813965e-05
-4.713237285614014e-05
-5.154311656951904e-05
-5.537271499633789e-05
-5.8531761169433594e-05
-6.090104579925537e-05
-6.267428398132324e-05
-6.379187107086182e-05
-6.455183029174805e-05
-6.507337093353271e-05
-6.562471389770508e-05
-6.64442777633667e-05
-6.781518459320068e-05
-6.987154483795166e-05
-7.27921724319458e-05
-7.651746273040771e-05
-8.121132850646973e-05
-8.657574653625488e-05
-9.250640869140625e-05
-9.88394021987915e-05
-0.00010515749454498291
-0.00011129677295684814
-0.00011689960956573486
-0.00012187659740447998
-0.00012601912021636963
-0.00012931227684020996
-0.00013171136379241943
-0.00013332068920135498
-0.00013421475887298584
-0.00013458728790283203
-0.0001347362995147705
-0.0001347362995147705
-0.00013481080532073975
-0.00013506412506103516
-0.0001357048749923706
-0.00013677775859832764
-0.00013834238052368164
-0.00014041364192962646
-0.0001429915428161621
-0.00014609098434448242
-0.00014960765838623047
-0.00015343725681304932
-0.00015752017498016357
-0.00016173720359802246
-0.00016604363918304443
-0.0001703202724456787
-0.00017440319061279297
-0.00017827749252319336
-0.0001817643642425537
4.188716411590576e-05
4.0337443351745605e-05
3.960728645324707e-05
3.9696693420410156e-05
4.048645496368408e-05
4.197657108306885e-05
4.400312900543213e-05
4.6506524085998535e-05
4.9501657485961914e-05
5.2675604820251465e-05
5.599856376647949e-05
5.933642387390137e-05
6.252527236938477e-05
6.541609764099121e-05
6.780028343200684e-05
6.955862045288086e-05
7.05420970916748e-05
7.061660289764404e-05
6.967782974243164e-05
6.771087646484375e-05
6.455183029174805e-05
6.0439109802246094e-05
5.544722080230713e-05
4.954636096954346e-05
4.309415817260742e-05
3.619492053985596e-05
2.9161572456359863e-05
2.2158026695251465e-05
1.545250415802002e-05
9.268522262573242e-06
3.7401914596557617e-06
-9.5367431640625e-07
-4.678964614868164e-06
-7.4356794357299805e-06
-9.194016456604004e-06
-9.909272193908691e-06
-9.79006290435791e-06
-8.925795555114746e-06
-7.539987564086914e-06
-5.7220458984375e-06
-3.7550926208496094e-06
-2.0712614059448242e-06
-7.748603820800781e-07
-8.940696716308594e-08
-3.725290298461914e-07
-1.6987323760986328e-06
-4.202127456665039e-06
-7.957220077514648e-06
-1.2770295143127441e-05
-1.8551945686340332e-05
-2.5033950805664062e-05
-3.1948089599609375e-05
-3.896653652191162e-05
-4.564225673675537e-05
-5.1915645599365234e-05
-5.745887756347656e-05
-6.218254566192627e-05
-6.602704524993896e-05
-6.89774751663208e-05
-7.127225399017334e-05
-7.295608520507812e-05
-7.437169551849365e-05
-7.565319538116455e-05
-7.717311382293701e-05
-7.911026477813721e-05
-8.17030668258667e-05
-8.490681648254395e-05
-8.893013000488281e-05
-9.360909461975098e-05
-9.892880916595459e-05
-0.00010450184345245361
-0.0001102834939956665
-0.00011587142944335938
-0.00012111663818359375
-0.00012579560279846191
-0.00012969970703125
-0.00013272464275360107
-0.00013494491577148438
-0.00013631582260131836
-0.00013700127601623535
-0.00013715028762817383
-0.0001369267702102661
-0.00013653934001922607
-0.00013612210750579834
-0.00013589859008789062
-0.0001360476016998291
-0.00013659894466400146
-0.0001377016305923462
-0.0001392960548400879
-0.00014141201972961426
-0.0001440197229385376
-0.00014713406562805176
-0.0001507103443145752
-0.0001544952392578125
-0.00015853345394134521
-0.0001627206802368164
-0.0001669377088546753
-0.00017099082469940186
-0.0001749098300933838
-0.00017847120761871338
4.526972770690918e-05
4.394352436065674e-05
4.3451786041259766e-05
4.380941390991211e-05
4.488229751586914e-05
4.6625733375549316e-05
4.8995018005371094e-05
5.1781535148620605e-05
5.5029988288879395e-05
5.8516860008239746e-05
6.216764450073242e-05
6.57886266708374e-05
6.920099258422852e-05
7.224082946777344e-05
7.478892803192139e-05
7.659196853637695e-05
7.748603820800781e-05
7.742643356323242e-05
7.623434066772461e-05
7.385015487670898e-05
7.027387619018555e-05
6.552040576934814e-05
5.984306335449219e-05
5.327165126800537e-05
4.601478576660156e-05
3.84598970413208e-05
3.072619438171387e-05
2.3186206817626953e-05
1.601874828338623e-05
9.641051292419434e-06
4.06801700592041e-06
-4.172325134277344e-07
-3.6507844924926758e-06
-5.662441253662109e-06
-6.318092346191406e-06
-5.617737770080566e-06
-3.769993782043457e-06
-8.642673492431641e-07
3.0100345611572266e-06
7.4803829193115234e-06
1.2174248695373535e-05
1.683831214904785e-05
2.1025538444519043e-05
2.428889274597168e-05
2.619624137878418e-05
2.6479363441467285e-05
2.4884939193725586e-05
2.1263957023620605e-05
1.564621925354004e-05
8.180737495422363e-06
-7.152557373046875e-07
-1.0669231414794922e-05
-2.12937593460083e-05
-3.196299076080322e-05
-4.22745943069458e-05
-5.1856040954589844e-05
-6.034970283508301e-05
-6.768107414245605e-05
-7.370114326477051e-05
-7.8544020652771e-05
-8.225440979003906e-05
-8.521974086761475e-05
-8.757412433624268e-05
-8.969008922576904e-05
-9.177625179290771e-05
-9.40859317779541e-05
-9.682774543762207e-05
-0.00010013580322265625
-0.0001039654016494751
-0.00010828673839569092
-0.00011301040649414062
-0.00011792778968811035
-0.000122755765914917
-0.00012731552124023438
-0.00013136863708496094
-0.00013478100299835205
-0.00013740360736846924
-0.0001392662525177002
-0.00014030933380126953
-0.00014056265354156494
-0.00014038383960723877
-0.00013974308967590332
-0.000138893723487854
-0.00013799965381622314
-0.0001372992992401123
-0.00013689696788787842
-0.0001369267702102661
-0.0001373887062072754
-0.00013844668865203857
-0.00014005601406097412
-0.00014227628707885742
-0.0001449882984161377
-0.0001481175422668457
-0.0001516789197921753
-0.00015553832054138184
-0.0001595020294189453
-0.00016357004642486572
-0.00016762316226959229
-0.00017155706882476807
-0.0001751929521560669
4.83393669128418e-05
4.717707633972168e-05
4.6819448471069336e-05
4.741549491882324e-05
4.8607587814331055e-05
5.05596399307251e-05
5.307793617248535e-05
5.608797073364258e-05
5.950033664703369e-05
6.318092346191406e-05
6.696581840515137e-05
7.072091102600098e-05
7.425248622894287e-05
7.745623588562012e-05
7.998943328857422e-05
8.176267147064209e-05
8.258223533630371e-05
8.225440979003906e-05
8.071959018707275e-05
7.79181718826294e-05
7.37905502319336e-05
6.848573684692383e-05
6.213784217834473e-05
5.4955482482910156e-05
4.711747169494629e-05
3.904104232788086e-05
3.096461296081543e-05
2.32011079788208e-05
1.609325408935547e-05
9.953975677490234e-06
5.02169132232666e-06
1.519918441772461e-06
-3.8743019104003906e-07
-6.407499313354492e-07
9.834766387939453e-07
4.455447196960449e-06
9.775161743164062e-06
1.6629695892333984e-05
2.5033950805664062e-05
3.451108932495117e-05
4.456937313079834e-05
5.473196506500244e-05
6.443262100219727e-05
7.268786430358887e-05
7.899105548858643e-05
8.26418399810791e-05
8.314847946166992e-05
8.0108642578125e-05
7.347762584686279e-05
6.349384784698486e-05
5.0455331802368164e-05
3.5136938095092773e-05
1.831352710723877e-05
7.152557373046875e-07
-1.6674399375915527e-05
-3.3274292945861816e-05
-4.850327968597412e-05
-6.189942359924316e-05
-7.332861423492432e-05
-8.276104927062988e-05
-9.022653102874756e-05
-9.611248970031738e-05
-0.00010065734386444092
-0.00010414421558380127
-0.00010697543621063232
-0.00010950863361358643
-0.00011196732521057129
-0.00011460483074188232
-0.00011757016181945801
-0.0001208186149597168
-0.00012442469596862793
-0.00012812018394470215
-0.00013193488121032715
-0.00013555586338043213
-0.00013878941535949707
-0.00014147162437438965
-0.00014349818229675293
-0.0001447051763534546
-0.00014525651931762695
-0.00014509260654449463
-0.00014442205429077148
-0.00014327466487884521
-0.00014191865921020508
-0.00014053285121917725
-0.0001392960548400879
-0.0001383274793624878
-0.00013768672943115234
-0.0001377016305923462
-0.00013816356658935547
-0.00013928115367889404
-0.00014092028141021729
-0.00014320015907287598
-0.00014588236808776855
-0.00014910101890563965
-0.00015263259410858154
-0.000156402587890625
-0.00016045570373535156
-0.0001644045114517212
-0.00016829371452331543
-0.00017192959785461426
5.112588405609131e-05
5.003809928894043e-05
4.982948303222656e-05
5.030632019042969e-05
5.1662325859069824e-05
5.364418029785156e-05
5.622208118438721e-05
5.9276819229125977e-05
6.271898746490479e-05
6.638467311859131e-05
7.02589750289917e-05
7.398426532745361e-05
7.75754451751709e-05
8.067488670349121e-05
8.310377597808838e-05
8.469820022583008e-05
8.529424667358398e-05
8.463859558105469e-05
8.268654346466064e-05
7.940828800201416e-05
7.477402687072754e-05
6.893277168273926e-05
6.203353404998779e-05
5.441904067993164e-05
4.629790782928467e-05
3.808736801147461e-05
3.0100345611572266e-05
2.2724270820617676e-05
1.634657382965088e-05
1.1354684829711914e-05
8.001923561096191e-06
6.660819053649902e-06
7.525086402893066e-06
1.0892748832702637e-05
1.6868114471435547e-05
2.562999725341797e-05
3.71783971786499e-05
5.136430263519287e-05
6.80088996887207e-05
8.673965930938721e-05
0.00010682642459869385
0.00012737512588500977
0.00014737248420715332
0.00016552209854125977
0.0001805722713470459
0.00019121170043945312
0.0001964867115020752
0.0001955479383468628
0.00018808245658874512
0.00017431378364562988
0.00015470385551452637
0.00013042986392974854
0.00010277330875396729
7.319450378417969e-05
4.318356513977051e-05
1.405179500579834e-05
-1.3083219528198242e-05
-3.744661808013916e-05
-5.857646465301514e-05
-7.639825344085693e-05
-9.085237979888916e-05
-0.00010222196578979492
-0.00011102855205535889
-0.00011764466762542725
-0.00012248754501342773
-0.0001261979341506958
-0.0001290440559387207
-0.00013150274753570557
-0.0001337975263595581
-0.0001360476016998291
-0.00013846158981323242
-0.00014093518257141113
-0.00014343857765197754
-0.00014576315879821777
-0.00014793872833251953
-0.00014962255954742432
-0.00015075504779815674
-0.0001513361930847168
-0.00015120208263397217
-0.00015050172805786133
-0.00014922022819519043
-0.00014761090278625488
-0.00014565885066986084
-0.00014372169971466064
-0.00014194846153259277
-0.00014035403728485107
-0.00013916194438934326
-0.00013846158981323242
-0.00013843178749084473
-0.00013893842697143555
-0.00014004111289978027
-0.00014178454875946045
-0.000144079327583313
-0.0001468956470489502
-0.0001500844955444336
-0.00015366077423095703
-0.0001574009656906128
-0.00016131997108459473
-0.00016514956951141357
-0.00016880035400390625
5.3629279136657715e-05
5.245208740234375e-05
5.218386650085449e-05
5.2675604820251465e-05
5.391240119934082e-05
5.587935447692871e-05
5.8323144912719727e-05
6.125867366790771e-05
6.461143493652344e-05
6.817281246185303e-05
7.18235969543457e-05
7.545948028564453e-05
7.87973403930664e-05
8.165836334228516e-05
8.386373519897461e-05
8.51750373840332e-05
8.532404899597168e-05
8.428096771240234e-05
8.185207843780518e-05
7.803738117218018e-05
7.295608520507812e-05
6.674230098724365e-05
5.955994129180908e-05
5.1781535148620605e-05
4.3764710426330566e-05
3.59266996383667e-05
2.874433994293213e-05
2.2590160369873047e-05
1.8030405044555664e-05
1.537799835205078e-05
1.5139579772949219e-05
1.7777085304260254e-05
2.3603439331054688e-05
3.314018249511719e-05
4.67449426651001e-05
6.465613842010498e-05
8.712708950042725e-05
0.00011423230171203613
0.000145643949508667
0.00018092989921569824
0.00021910667419433594
0.000258713960647583
0.00029809772968292236
0.00033499300479888916
0.0003671199083328247
0.0003920048475265503
0.00040765106678009033
0.00041237473487854004
0.0004052966833114624
0.00038643181324005127
0.00035671889781951904
0.00031763315200805664
0.00027173757553100586
0.00022137165069580078
0.00016939640045166016
0.00011815130710601807
6.972253322601318e-05
2.568960189819336e-05
-1.3053417205810547e-05
-4.598498344421387e-05
-7.317960262298584e-05
-9.492039680480957e-05
-0.00011192262172698975
-0.00012475252151489258
-0.0001341402530670166
-0.00014084577560424805
-0.00014550983905792236
-0.00014881789684295654
-0.0001510530710220337