# vtk DataFile Version 3.0
2D PINN Solution
ASCII
DATASET STRUCTURED_GRID
DIMENSIONS 100 100 1
POINTS 10000 float
-1.0 -1.0 0.0
-0.9797979797979798 -1.0 0.0
-0.9595959595959596 -1.0 0.0
-0.9393939393939394 -1.0 0.0
-0.9191919191919192 -1.0 0.0
-0.898989898989899 -1.0 0.0
-0.8787878787878788 -1.0 0.0
-0.8585858585858586 -1.0 0.0
-0.8383838383838383 -1.0 0.0
-0.8181818181818181 -1.0 0.0
-0.797979797979798 -1.0 0.0
-0.7777777777777778 -1.0 0.0
-0.7575757575757576 -1.0 0.0
-0.7373737373737373 -1.0 0.0
-0.7171717171717171 -1.0 0.0
-0.696969696969697 -1.0 0.0
-0.6767676767676767 -1.0 0.0
-0.6565656565656566 -1.0 0.0
-0.6363636363636364 -1.0 0.0
-0.6161616161616161 -1.0 0.0
-0.5959595959595959 -1.0 0.0
-0.5757575757575757 -1.0 0.0
-0.5555555555555556 -1.0 0.0
-0.5353535353535352 -1.0 0.0
-0.5151515151515151 -1.0 0.0
-0.4949494949494949 -1.0 0.0
-0.4747474747474747 -1.0 0.0
-0.4545454545454545 -1.0 0.0
-0.43434343434343425 -1.0 0.0
-0.41414141414141414 -1.0 0.0
-0.3939393939393939 -1.0 0.0
-0.3737373737373737 -1.0 0.0
-0.3535353535353535 -1.0 0.0
-0.33333333333333326 -1.0 0.0
-0.31313131313131304 -1.0 0.0
-0.2929292929292928 -1.0 0.0
-0.2727272727272727 -1.0 0.0
-0.2525252525252525 -1.0 0.0
-0.23232323232323226 -1.0 0.0
-0.21212121212121204 -1.0 0.0
-0.19191919191919182 -1.0 0.0
-0.1717171717171716 -1.0 0.0
-0.1515151515151515 -1.0 0.0
-0.13131313131313127 -1.0 0.0
-0.11111111111111105 -1.0 0.0
-0.09090909090909083 -1.0 0.0
-0.07070707070707061 -1.0 0.0
-0.050505050505050386 -1.0 0.0
-0.030303030303030276 -1.0 0.0
-0.010101010101010055 -1.0 0.0
0.010101010101010166 -1.0 0.0
0.030303030303030498 -1.0 0.0
0.05050505050505061 -1.0 0.0
0.07070707070707072 -1.0 0.0
0.09090909090909105 -1.0 0.0
0.11111111111111116 -1.0 0.0
0.1313131313131315 -1.0 0.0
0.1515151515151516 -1.0 0.0
0.1717171717171717 -1.0 0.0
0.19191919191919204 -1.0 0.0
0.21212121212121215 -1.0 0.0
0.2323232323232325 -1.0 0.0
0.2525252525252526 -1.0 0.0
0.27272727272727293 -1.0 0.0
0.29292929292929304 -1.0 0.0
0.31313131313131315 -1.0 0.0
0.3333333333333335 -1.0 0.0
0.3535353535353536 -1.0 0.0
0.3737373737373739 -1.0 0.0
0.39393939393939403 -1.0 0.0
0.41414141414141437 -1.0 0.0
0.4343434343434345 -1.0 0.0
0.4545454545454546 -1.0 0.0
0.4747474747474749 -1.0 0.0
0.49494949494949503 -1.0 0.0
0.5151515151515154 -1.0 0.0
0.5353535353535355 -1.0 0.0
0.5555555555555556 -1.0 0.0
0.5757575757575759 -1.0 0.0
0.595959595959596 -1.0 0.0
0.6161616161616164 -1.0 0.0
0.6363636363636365 -1.0 0.0
0.6565656565656568 -1.0 0.0
0.6767676767676769 -1.0 0.0
0.696969696969697 -1.0 0.0
0.7171717171717173 -1.0 0.0
0.7373737373737375 -1.0 0.0
0.7575757575757578 -1.0 0.0
0.7777777777777779 -1.0 0.0
0.7979797979797982 -1.0 0.0
0.8181818181818183 -1.0 0.0
0.8383838383838385 -1.0 0.0
0.8585858585858588 -1.0 0.0
0.8787878787878789 -1.0 0.0
0.8989898989898992 -1.0 0.0
0.9191919191919193 -1.0 0.0
0.9393939393939394 -1.0 0.0
0.9595959595959598 -1.0 0.0
0.9797979797979799 -1.0 0.0
1.0 -1.0 0.0
-1.0 -0.9797979797979798 0.0
-0.9797979797979798 -0.9797979797979798 0.0
-0.9595959595959596 -0.9797979797979798 0.0
-0.9393939393939394 -0.9797979797979798 0.0
-0.9191919191919192 -0.9797979797979798 0.0
-0.898989898989899 -0.9797979797979798 0.0
-0.8787878787878788 -0.9797979797979798 0.0
-0.8585858585858586 -0.9797979797979798 0.0
-0.8383838383838383 -0.9797979797979798 0.0
-0.8181818181818181 -0.9797979797979798 0.0
-0.797979797979798 -0.9797979797979798 0.0
-0.7777777777777778 -0.9797979797979798 0.0
-0.7575757575757576 -0.9797979797979798 0.0
-0.7373737373737373 -0.9797979797979798 0.0
-0.7171717171717171 -0.9797979797979798 0.0
-0.696969696969697 -0.9797979797979798 0.0
-0.6767676767676767 -0.9797979797979798 0.0
-0.6565656565656566 -0.9797979797979798 0.0
-0.6363636363636364 -0.9797979797979798 0.0
-0.6161616161616161 -0.9797979797979798 0.0
-0.5959595959595959 -0.9797979797979798 0.0
-0.5757575757575757 -0.9797979797979798 0.0
-0.5555555555555556 -0.9797979797979798 0.0
-0.5353535353535352 -0.9797979797979798 0.0
-0.5151515151515151 -0.9797979797979798 0.0
-0.4949494949494949 -0.9797979797979798 0.0
-0.4747474747474747 -0.9797979797979798 0.0
-0.4545454545454545 -0.9797979797979798 0.0
-0.43434343434343425 -0.9797979797979798 0.0
-0.41414141414141414 -0.9797979797979798 0.0
-0.3939393939393939 -0.9797979797979798 0.0
-0.3737373737373737 -0.9797979797979798 0.0
-0.3535353535353535 -0.9797979797979798 0.0
-0.33333333333333326 -0.9797979797979798 0.0
-0.31313131313131304 -0.9797979797979798 0.0
-0.2929292929292928 -0.9797979797979798 0.0
-0.2727272727272727 -0.9797979797979798 0.0
-0.2525252525252525 -0.9797979797979798 0.0
-0.23232323232323226 -0.9797979797979798 0.0
-0.21212121212121204 -0.9797979797979798 0.0
-0.19191919191919182 -0.9797979797979798 0.0
-0.1717171717171716 -0.9797979797979798 0.0
-0.1515151515151515 -0.9797979797979798 0.0
-0.13131313131313127 -0.9797979797979798 0.0
-0.11111111111111105 -0.9797979797979798 0.0
-0.09090909090909083 -0.9797979797979798 0.0
-0.07070707070707061 -0.9797979797979798 0.0
-0.050505050505050386 -0.9797979797979798 0.0
-0.030303030303030276 -0.9797979797979798 0.0
-0.010101010101010055 -0.9797979797979798 0.0
0.010101010101010166 -0.9797979797979798 0.0
0.030303030303030498 -0.9797979797979798 0.0
0.05050505050505061 -0.9797979797979798 0.0
0.07070707070707072 -0.9797979797979798 0.0
0.09090909090909105 -0.9797979797979798 0.0
0.11111111111111116 -0.9797979797979798 0.0
0.1313131313131315 -0.9797979797979798 0.0
0.1515151515151516 -0.9797979797979798 0.0
0.1717171717171717 -0.9797979797979798 0.0
0.19191919191919204 -0.9797979797979798 0.0
0.21212121212121215 -0.9797979797979798 0.0
0.2323232323232325 -0.9797979797979798 0.0
0.2525252525252526 -0.9797979797979798 0.0
0.27272727272727293 -0.9797979797979798 0.0
0.29292929292929304 -0.9797979797979798 0.0
0.31313131313131315 -0.9797979797979798 0.0
0.3333333333333335 -0.9797979797979798 0.0
0.3535353535353536 -0.9797979797979798 0.0
0.3737373737373739 -0.9797979797979798 0.0
0.39393939393939403 -0.9797979797979798 0.0
0.41414141414141437 -0.9797979797979798 0.0
0.4343434343434345 -0.9797979797979798 0.0
0.4545454545454546 -0.9797979797979798 0.0
0.4747474747474749 -0.9797979797979798 0.0
0.49494949494949503 -0.9797979797979798 0.0
0.5151515151515154 -0.9797979797979798 0.0
0.5353535353535355 -0.9797979797979798 0.0
0.5555555555555556 -0.9797979797979798 0.0
0.5757575757575759 -0.9797979797979798 0.0
0.595959595959596 -0.9797979797979798 0.0
0.6161616161616164 -0.9797979797979798 0.0
0.6363636363636365 -0.9797979797979798 0.0
0.6565656565656568 -0.9797979797979798 0.0
0.6767676767676769 -0.9797979797979798 0.0
0.696969696969697 -0.9797979797979798 0.0
0.7171717171717173 -0.9797979797979798 0.0
0.7373737373737375 -0.9797979797979798 0.0
0.7575757575757578 -0.9797979797979798 0.0
0.7777777777777779 -0.9797979797979798 0.0
0.7979797979797982 -0.9797979797979798 0.0
0.8181818181818183 -0.9797979797979798 0.0
0.8383838383838385 -0.9797979797979798 0.0
0.8585858585858588 -0.9797979797979798 0.0
0.8787878787878789 -0.9797979797979798 0.0
0.8989898989898992 -0.9797979797979798 0.0
0.9191919191919193 -0.9797979797979798 0.0
0.9393939393939394 -0.9797979797979798 0.0
0.9595959595959598 -0.9797979797979798 0.0
0.9797979797979799 -0.9797979797979798 0.0
1.0 -0.9797979797979798 0.0
-1.0 -0.9595959595959596 0.0
-0.9797979797979798 -0.9595959595959596 0.0
-0.9595959595959596 -0.9595959595959596 0.0
-0.9393939393939394 -0.9595959595959596 0.0
-0.9191919191919192 -0.9595959595959596 0.0
-0.898989898989899 -0.9595959595959596 0.0
-0.8787878787878788 -0.9595959595959596 0.0
-0.8585858585858586 -0.9595959595959596 0.0
-0.8383838383838383 -0.9595959595959596 0.0
-0.8181818181818181 -0.9595959595959596 0.0
-0.797979797979798 -0.9595959595959596 0.0
-0.7777777777777778 -0.9595959595959596 0.0
-0.7575757575757576 -0.9595959595959596 0.0
-0.7373737373737373 -0.9595959595959596 0.0
-0.7171717171717171 -0.9595959595959596 0.0
-0.696969696969697 -0.9595959595959596 0.0
-0.6767676767676767 -0.9595959595959596 0.0
-0.6565656565656566 -0.9595959595959596 0.0
-0.6363636363636364 -0.9595959595959596 0.0
-0.6161616161616161 -0.9595959595959596 0.0
-0.5959595959595959 -0.9595959595959596 0.0
-0.5757575757575757 -0.9595959595959596 0.0
-0.5555555555555556 -0.9595959595959596 0.0
-0.5353535353535352 -0.9595959595959596 0.0
-0.5151515151515151 -0.9595959595959596 0.0
-0.4949494949494949 -0.9595959595959596 0.0
-0.4747474747474747 -0.9595959595959596 0.0
-0.4545454545454545 -0.9595959595959596 0.0
-0.43434343434343425 -0.9595959595959596 0.0
-0.41414141414141414 -0.9595959595959596 0.0
-0.3939393939393939 -0.9595959595959596 0.0
-0.3737373737373737 -0.9595959595959596 0.0
-0.3535353535353535 -0.9595959595959596 0.0
-0.33333333333333326 -0.9595959595959596 0.0
-0.31313131313131304 -0.9595959595959596 0.0
-0.2929292929292928 -0.9595959595959596 0.0
-0.2727272727272727 -0.9595959595959596 0.0
-0.2525252525252525 -0.9595959595959596 0.0
-0.23232323232323226 -0.9595959595959596 0.0
-0.21212121212121204 -0.9595959595959596 0.0
-0.19191919191919182 -0.9595959595959596 0.0
-0.1717171717171716 -0.9595959595959596 0.0
-0.1515151515151515 -0.9595959595959596 0.0
-0.13131313131313127 -0.9595959595959596 0.0
-0.11111111111111105 -0.9595959595959596 0.0
-0.09090909090909083 -0.9595959595959596 0.0
-0.07070707070707061 -0.9595959595959596 0.0
-0.050505050505050386 -0.9595959595959596 0.0
-0.030303030303030276 -0.9595959595959596 0.0
-0.010101010101010055 -0.9595959595959596 0.0
0.010101010101010166 -0.9595959595959596 0.0
0.030303030303030498 -0.9595959595959596 0.0
0.05050505050505061 -0.9595959595959596 0.0
0.07070707070707072 -0.9595959595959596 0.0
0.09090909090909105 -0.9595959595959596 0.0
0.11111111111111116 -0.9595959595959596 0.0
0.1313131313131315 -0.9595959595959596 0.0
0.1515151515151516 -0.9595959595959596 0.0
0.1717171717171717 -0.9595959595959596 0.0
0.19191919191919204 -0.9595959595959596 0.0
0.21212121212121215 -0.9595959595959596 0.0
[...]
POINT_DATA 10000
SCALARS u float 1
LOOKUP_TABLE default
1.0326504707336426e-05
5.125999450683594e-06
4.172325134277344e-07
-3.7848949432373047e-06
-7.599592208862305e-06
-1.1146068572998047e-05
-1.4379620552062988e-05
-1.749396324157715e-05
-2.0384788513183594e-05
-2.3230910301208496e-05
-2.613663673400879e-05
-2.8908252716064453e-05
-3.165006637573242e-05
-3.4496188163757324e-05
-3.731250762939453e-05
-4.017353057861328e-05
-4.296004772186279e-05
-4.5746564865112305e-05
-4.842877388000488e-05
-5.094707012176514e-05
-5.334615707397461e-05
-5.558133125305176e-05
-5.7637691497802734e-05
-5.953013896942139e-05
-6.130337715148926e-05
-6.289780139923096e-05
-6.441771984100342e-05
-6.587803363800049e-05
-6.730854511260986e-05
-6.872415542602539e-05
-7.02887773513794e-05
-7.191300392150879e-05
-7.359683513641357e-05
-7.538497447967529e-05
-7.727742195129395e-05
-7.918477058410645e-05
-8.109211921691895e-05
-8.302927017211914e-05
-8.502602577209473e-05
-8.681416511535645e-05
-8.852779865264893e-05
-9.007751941680908e-05
-9.143352508544922e-05
-9.277462959289551e-05
-9.381771087646484e-05
-9.47713851928711e-05
-9.563565254211426e-05
-9.641051292419434e-05
-9.72747802734375e-05
-9.82433557510376e-05
-9.943544864654541e-05
-0.00010094046592712402
-0.00010283291339874268
-0.00010517239570617676
-0.00010801851749420166
-0.00011146068572998047
-0.00011532008647918701
-0.00011965632438659668
-0.0001242607831954956
-0.0001291334629058838
-0.00013402104377746582
-0.00013874471187591553
-0.00014320015907287598
-0.00014719367027282715
-0.00015056133270263672
-0.00015319883823394775
-0.00015497207641601562
-0.00015597045421600342
-0.0001560896635055542
-0.0001554042100906372
-0.00015404820442199707
-0.00015214085578918457
-0.00014975666999816895
-0.00014708936214447021
-0.0001443326473236084
-0.0001415461301803589
-0.0001389235258102417
-0.00013662874698638916
-0.0001347362995147705
-0.00013330578804016113
-0.00013241171836853027
-0.00013214349746704102
-0.0001324862241744995
-0.0001334547996520996
-0.00013497471809387207
-0.0001370757818222046
-0.00013975799083709717
-0.00014288723468780518
-0.00014638900756835938
-0.00015021860599517822
-0.00015427172183990479
-0.00015851855278015137
-0.00016266107559204102
-0.0001668184995651245
-0.00017076730728149414
-0.00017438828945159912
-0.00017759203910827637
-0.00018036365509033203
-0.00018255412578582764
-0.0001841038465499878
1.2472271919250488e-05
7.838010787963867e-06
3.874301910400391e-06
2.980232238769531e-07
-2.9206275939941406e-06
-5.900859832763672e-06
-8.597970008850098e-06
-1.1205673217773438e-05
-1.3753771781921387e-05
-1.6197562217712402e-05
-1.8715858459472656e-05
-2.12937593460083e-05
-2.3916363716125488e-05
-2.6673078536987305e-05
-2.9549002647399902e-05
-3.246963024139404e-05
-3.5375356674194336e-05
-3.8310885429382324e-05
-4.120171070098877e-05
-4.400312900543213e-05
-4.6625733375549316e-05
-4.9114227294921875e-05
-5.142390727996826e-05
-5.3495168685913086e-05
-5.5417418479919434e-05
-5.723536014556885e-05
-5.8963894844055176e-05
-6.0558319091796875e-05
-6.210803985595703e-05
-6.38812780380249e-05
-6.559491157531738e-05
-6.751716136932373e-05
-6.954371929168701e-05
-7.173418998718262e-05
-7.4043869972229e-05
-7.654726505279541e-05
-7.911026477813721e-05
-8.174777030944824e-05
-8.442997932434082e-05
-8.712708950042725e-05
-8.979439735412598e-05
-9.237229824066162e-05
-9.492039680480957e-05
-9.740889072418213e-05
-9.976327419281006e-05
-0.00010204315185546875
-0.0001042783260345459
-0.00010645389556884766
-0.00010870397090911865
-0.00011102855205535889
-0.00011351704597473145
-0.00011618435382843018
-0.0001192241907119751
-0.00012250244617462158
-0.00012604892253875732
-0.0001299530267715454
-0.000134199857711792
-0.0001386404037475586
-0.00014320015907287598
-0.0001478046178817749
-0.00015228986740112305
-0.00015649199485778809
-0.0001602768898010254
-0.00016351044178009033
-0.00016605854034423828
-0.0001678764820098877
-0.00016883015632629395
-0.00016891956329345703
-0.00016830861568450928
-0.0001669079065322876
-0.00016483664512634277
-0.00016222894191741943
-0.0001591891050338745
-0.00015594065189361572
-0.00015254318714141846
-0.00014923512935638428
-0.00014604628086090088
-0.00014314055442810059
-0.00014063715934753418
-0.00013868510723114014
-0.00013712048530578613
-0.00013621151447296143
-0.00013592839241027832
-0.00013621151447296143
-0.00013710558414459229
-0.00013859570026397705
-0.00014066696166992188
-0.00014320015907287598
-0.0001462697982788086
-0.0001496821641921997
-0.00015336275100708008
-0.000157281756401062
-0.00016126036643981934
-0.00016526877880096436
-0.0001691579818725586
-0.00017274916172027588
-0.00017605721950531006
-0.00017884373664855957
-0.0001811385154724121
-0.0001828223466873169
1.5333294868469238e-05
1.138448715209961e-05
7.987022399902344e-06
4.991888999938965e-06
2.3692846298217773e-06
1.4901161193847656e-08
-2.16066837310791e-06
-4.217028617858887e-06
-6.303191184997559e-06
-8.434057235717773e-06
-1.0669231414794922e-05
-1.3023614883422852e-05
-1.5556812286376953e-05
-1.823902130126953e-05
-2.1070241928100586e-05
-2.403557300567627e-05
-2.714991569519043e-05
-3.0234456062316895e-05
-3.33636999130249e-05
-3.6388635635375977e-05
-3.923475742340088e-05
-4.1961669921875e-05
-4.445016384124756e-05
-4.678964614868164e-05
-4.881620407104492e-05
-5.0768256187438965e-05
-5.2601099014282227e-05
-5.435943603515625e-05
-5.6117773056030273e-05
-5.7950615882873535e-05
-5.9932470321655273e-05
-6.204843521118164e-05
-6.438791751861572e-05
-6.692111492156982e-05
-6.972253322601318e-05
-7.265806198120117e-05
-7.581710815429688e-05
-7.91400671005249e-05
-8.253753185272217e-05
-8.600950241088867e-05
-8.955597877502441e-05
-9.3117356300354e-05
-9.672343730926514e-05
-0.00010024011135101318
-0.00010380148887634277
-0.00010733306407928467
-0.00011084973812103271
-0.00011432170867919922
-0.0001179128885269165
-0.00012151896953582764
-0.00012524425983428955
-0.00012908875942230225
-0.00013303756713867188
-0.00013723969459533691
-0.00014150142669677734
-0.0001459270715713501
-0.0001503974199295044
-0.00015498697757720947
-0.00015942752361297607
-0.0001636892557144165
-0.00016775727272033691
-0.00017136335372924805
-0.00017449259757995605
-0.00017696619033813477
-0.00017876923084259033
-0.00017981231212615967
-0.00018005073070526123
-0.00017945468425750732
-0.00017815828323364258
-0.0001761913299560547
-0.00017355382442474365
-0.00017049908638000488
-0.00016702711582183838
-0.0001634061336517334
-0.00015963613986968994
-0.00015588104724884033
-0.0001523047685623169
-0.00014901161193847656
-0.0001461505889892578
-0.0001436471939086914
-0.00014165043830871582
-0.00014021992683410645
-0.00013931095600128174
-0.00013904273509979248
-0.00013937056064605713
-0.00014035403728485107
-0.0001417696475982666
-0.00014384090900421143
-0.00014637410640716553
-0.0001493394374847412
-0.0001526474952697754
-0.00015623867511749268
-0.00016003847122192383
-0.00016385316848754883
-0.00016760826110839844
-0.00017119944095611572
-0.0001745074987411499
-0.0001773834228515625
-0.00017976760864257812
-0.0001815706491470337
1.8775463104248047e-05
1.5407800674438477e-05
1.2606382369995117e-05
1.0222196578979492e-05
8.195638656616211e-06
6.3925981521606445e-06
4.753470420837402e-06
3.129243850708008e-06
1.519918441772461e-06
-2.682209014892578e-07
-2.16066837310791e-06
-4.291534423828125e-06
-6.705522537231445e-06
-9.28342342376709e-06
-1.220405101776123e-05
-1.5303492546081543e-05
-1.8551945686340332e-05
-2.1889805793762207e-05
-2.530217170715332e-05
-2.855062484741211e-05
-3.173947334289551e-05
-3.4749507904052734e-05
-3.746151924133301e-05
-3.997981548309326e-05
-4.225969314575195e-05
-4.431605339050293e-05
-4.629790782928467e-05
-4.811584949493408e-05
-5.0008296966552734e-05
-5.1975250244140625e-05
-5.415081977844238e-05
-5.650520324707031e-05
-5.9038400650024414e-05
-6.198883056640625e-05
-6.508827209472656e-05
-6.856024265289307e-05
-7.21961259841919e-05
-7.607042789459229e-05
-8.015334606170654e-05
-8.435547351837158e-05
-8.873641490936279e-05
-9.31769609451294e-05
-9.778141975402832e-05
-0.00010228157043457031
-0.00010694563388824463
-0.0001115947961807251
-0.0001163184642791748
-0.00012111663818359375
-0.00012589991092681885
-0.0001307278871536255
-0.00013566017150878906
-0.00014062225818634033
-0.00014553964138031006
-0.00015050172805786133
-0.0001554638147354126
-0.00016035139560699463
-0.00016504526138305664
-0.00016959011554718018
-0.000173911452293396
-0.00017784535884857178
-0.00018133223056793213
-0.00018431246280670166
-0.00018671154975891113
-0.00018841028213500977
-0.00018940865993499756
-0.0001897364854812622
-0.0001892298460006714
-0.00018805265426635742
-0.00018619000911712646
-0.0001837313175201416
-0.00018066167831420898
-0.00017727911472320557
-0.0001735389232635498
-0.0001696944236755371
-0.00016561150550842285
-0.0001617521047592163
-0.00015792250633239746
-0.00015437602996826172
-0.00015115737915039062
-0.00014831125736236572
-0.00014597177505493164
-0.000144079327583313
-0.0001427680253982544
-0.00014200806617736816
-0.0001417994499206543
-0.00014220178127288818
-0.00014315545558929443
-0.00014466047286987305
-0.00014673173427581787
-0.00014927983283996582
-0.00015217065811157227
-0.0001554638147354126
-0.00015898048877716064
-0.00016258656978607178
-0.0001662522554397583
-0.0001697838306427002
-0.00017306208610534668
-0.0001760423183441162
-0.00017847120761871338
-0.00018034875392913818
2.2679567337036133e-05
1.9922852516174316e-05
1.767277717590332e-05
1.583993434906006e-05
1.436471939086914e-05
1.309812068939209e-05
1.195073127746582e-05
1.0728836059570312e-05
9.506940841674805e-06
8.091330528259277e-06
6.4373016357421875e-06
4.500150680541992e-06
2.205371856689453e-06
-4.470348358154297e-07
-3.3974647521972656e-06
-6.690621376037598e-06
-1.0162591934204102e-05
-1.3738870620727539e-05
-1.7464160919189453e-05
-2.1129846572875977e-05
-2.467632293701172e-05
-2.7954578399658203e-05
-3.103911876678467e-05
-3.3795833587646484e-05
-3.629922866821289e-05
-3.853440284729004e-05
-4.054605960845947e-05
-4.2557716369628906e-05
-4.45246696472168e-05
-4.661083221435547e-05
-4.881620407104492e-05
-5.131959915161133e-05
-5.416572093963623e-05
-5.728006362915039e-05
-6.073713302612305e-05
-6.455183029174805e-05
-6.86347484588623e-05
-7.309019565582275e-05
-7.773935794830322e-05
-8.26418399810791e-05
-8.7738037109375e-05
-9.299814701080322e-05
-9.840726852416992e-05
-0.00010395050048828125
-0.00010961294174194336
-0.00011532008647918701
-0.00012117624282836914
-0.0001271665096282959
-0.00013308227062225342
-0.00013916194438934326
-0.00014531612396240234
-0.00015132129192352295
-0.0001573413610458374
-0.0001631230115890503
-0.000168725848197937
-0.00017400085926055908
-0.00017893314361572266
-0.0001834183931350708
-0.00018747150897979736
-0.00019095838069915771
-0.00019384920597076416
-0.00019606947898864746
-0.0001976490020751953
-0.00019855797290802002
-0.00019869208335876465
-0.00019823014736175537
-0.0001970529556274414
-0.00019530951976776123
-0.00019291043281555176
-0.00018997490406036377
-0.00018665194511413574
-0.00018292665481567383
-0.00017905235290527344
-0.00017498433589935303
-0.00017087161540985107
-0.0001668483018875122
-0.00016291439533233643
-0.00015923380851745605
-0.00015585124492645264
-0.00015278160572052002
-0.0001501142978668213
-0.00014793872833251953
-0.0001462101936340332
-0.00014506280422210693
-0.0001443326473236084
-0.0001443028450012207
-0.00014477968215942383
-0.00014577805995941162
-0.00014740228652954102
-0.00014947354793548584
-0.00015203654766082764
-0.00015498697757720947
-0.00015816092491149902
-0.00016164779663085938
-0.00016513466835021973
-0.0001685619354248047
-0.00017182528972625732
-0.000174790620803833
-0.00017724931240081787
-0.00017924606800079346
2.70158052444458e-05
2.47955322265625e-05
2.3052096366882324e-05
2.1710991859436035e-05
2.0742416381835938e-05
1.9982457160949707e-05
1.920759677886963e-05
1.850724220275879e-05
1.7642974853515625e-05
1.646578311920166e-05
1.5035271644592285e-05
1.3187527656555176e-05
1.099705696105957e-05
8.225440979003906e-06
5.155801773071289e-06
1.5944242477416992e-06
-2.2202730178833008e-06
-6.258487701416016e-06
-1.0386109352111816e-05
-1.4454126358032227e-05
-1.8462538719177246e-05
-2.2217631340026855e-05
-2.5674700736999512e-05
-2.8699636459350586e-05
-3.141164779663086e-05
-3.384053707122803e-05
-3.597140312194824e-05
-3.795325756072998e-05
-3.993511199951172e-05
-4.197657108306885e-05
-4.424154758453369e-05
-4.6759843826293945e-05
-4.9591064453125e-05
-5.27799129486084e-05
-5.640089511871338e-05
-6.03795051574707e-05
-6.479024887084961e-05
-6.957352161407471e-05
-7.46697187423706e-05
-8.009374141693115e-05
-8.577108383178711e-05
-9.177625179290771e-05
-9.801983833312988e-05
-0.00010441243648529053
-0.00011099874973297119
-0.00011782348155975342
-0.00012481212615966797
-0.0001319199800491333
-0.00013919174671173096
-0.00014656782150268555
-0.0001538991928100586
-0.0001612156629562378
-0.00016833841800689697
-0.0001751333475112915
-0.00018152594566345215
-0.00018736720085144043
-0.00019249320030212402
-0.00019699335098266602
-0.00020070374011993408
-0.00020366907119750977
-0.00020584464073181152
-0.00020723044872283936
-0.0002079308032989502
-0.0002079010009765625
-0.0002072453498840332
-0.00020588934421539307
-0.00020398199558258057
-0.00020156800746917725
-0.00019863247871398926
-0.00019536912441253662
-0.00019171833992004395
-0.00018787384033203125
-0.00018377602100372314
-0.0001796334981918335
-0.0001755058765411377
-0.00017142295837402344
-0.00016748905181884766
-0.0001637488603591919
-0.0001602768898010254
-0.00015704333782196045
-0.00015419721603393555
-0.00015169382095336914
-0.00014972686767578125
-0.0001481771469116211
-0.0001471489667892456
-0.0001465827226638794
-0.00014664232730865479
-0.00014725327491760254
-0.00014835596084594727
-0.0001500248908996582
-0.00015226006507873535
-0.00015482306480407715
-0.00015778839588165283
-0.00016097724437713623
-0.00016433000564575195
-0.00016768276691436768
-0.00017084181308746338
-0.00017380714416503906
-0.00017632544040679932
-0.00017833709716796875
3.166496753692627e-05
2.987682819366455e-05
2.8595328330993652e-05
2.7745962142944336e-05
2.726912498474121e-05
2.689659595489502e-05
2.6538968086242676e-05
2.6166439056396484e-05
2.5600194931030273e-05
2.4706125259399414e-05
2.3365020751953125e-05
2.162158489227295e-05
1.932680606842041e-05
1.6435980796813965e-05
1.309812068939209e-05
9.179115295410156e-06
4.9620866775512695e-06
3.8743019104003906e-07
-4.32133674621582e-06
-8.955597877502441e-06
-1.3500452041625977e-05
-1.773238182067871e-05
-2.1576881408691406e-05
-2.4959444999694824e-05
-2.7894973754882812e-05
-3.039836883544922e-05
-3.248453140258789e-05
-3.446638584136963e-05
-3.6209821701049805e-05
-3.7997961044311523e-05
-3.9905309677124023e-05
-4.2051076889038086e-05
-4.455447196960449e-05
-4.738569259643555e-05
-5.067884922027588e-05
-5.443394184112549e-05
-5.8650970458984375e-05
-6.337463855743408e-05
-6.857514381408691e-05
-7.425248622894287e-05
-8.040666580200195e-05
-8.696317672729492e-05
-9.389221668243408e-05
-0.00010122358798980713
-0.00010882318019866943
-0.00011681020259857178
-0.00012509524822235107
-0.00013361871242523193
-0.00014244019985198975
-0.00015141069889068604
-0.00016041100025177002
-0.00016932189464569092
-0.0001779794692993164
-0.00018611550331115723
-0.0001935511827468872
-0.00020019710063934326
-0.00020578503608703613
-0.00021035969257354736
-0.00021386146545410156
-0.00021629035472869873
-0.00021776556968688965
-0.000218316912651062
-0.00021798908710479736
-0.00021694600582122803
-0.00021526217460632324
-0.0002129971981048584
-0.00021028518676757812
-0.00020723044872283936
-0.0002037733793258667
-0.00020010769367218018
-0.00019618868827819824
-0.00019212067127227783
-0.00018796324729919434
-0.00018383562564849854
-0.00017964839935302734
-0.00017556548118591309
-0.00017164647579193115
-0.0001678764820098877
-0.00016438961029052734
-0.0001611262559890747
-0.00015811622142791748
-0.00015547871589660645
-0.00015322864055633545
-0.00015138089656829834
-0.0001500248908996582
-0.0001491457223892212
-0.0001488029956817627
-0.00014896690845489502
-0.00014972686767578125
-0.000151023268699646
-0.00015282630920410156
-0.00015513598918914795
-0.00015780329704284668
-0.00016076862812042236
-0.00016392767429351807
-0.000167161226272583
-0.00017024576663970947
-0.00017312169075012207
-0.00017566978931427002
-0.0001776963472366333
3.653764724731445e-05
3.516674041748047e-05
3.437697887420654e-05
3.388524055480957e-05
3.37064266204834e-05
3.3736228942871094e-05
3.376603126525879e-05
3.364682197570801e-05
3.331899642944336e-05
3.255903720855713e-05
3.1322240829467773e-05
2.944469451904297e-05
2.7060508728027344e-05
2.3931264877319336e-05
2.0176172256469727e-05
1.5854835510253906e-05
1.0982155799865723e-05
5.811452865600586e-06
4.76837158203125e-07
-4.872679710388184e-06
-9.939074516296387e-06
-1.4707446098327637e-05
-1.8924474716186523e-05
-2.263486385345459e-05
-2.5644898414611816e-05
-2.7999281883239746e-05
-2.9861927032470703e-05
-3.126263618469238e-05
-3.243982791900635e-05
-3.33636999130249e-05
-3.427267074584961e-05
-3.534555435180664e-05
-3.6522746086120605e-05
-3.813207149505615e-05
-4.012882709503174e-05
-4.267692565917969e-05
-4.5865774154663086e-05
-4.971027374267578e-05
-5.429983139038086e-05
-5.9664249420166016e-05
-6.58184289932251e-05
-7.270276546478271e-05
-8.03917646408081e-05
-8.872151374816895e-05
-9.772181510925293e-05
-0.00010737776756286621
-0.00011745095252990723
-0.0001281648874282837
-0.00013928115367889404
-0.00015072524547576904
-0.00016222894191741943
-0.00017370283603668213
-0.000184670090675354
-0.00019490718841552734
-0.0002041161060333252
-0.00021204352378845215
-0.00021854043006896973
-0.0002235323190689087
-0.00022698938846588135
-0.00022901594638824463
-0.00022977590560913086
-0.00022943317890167236
-0.00022810697555541992
-0.00022590160369873047
-0.0002231895923614502
-0.0002199411392211914
-0.00021642446517944336
-0.00021253526210784912
-0.0002084672451019287
-0.0002043396234512329
-0.00020015239715576172
-0.0001958608627319336
-0.00019162893295288086
-0.00018741190433502197
-0.00018328428268432617
-0.0001792311668395996
-0.00017538666725158691
-0.00017164647579193115
-0.0001681894063949585
-0.0001649409532546997
-0.00016185641288757324
-0.00015914440155029297
-0.0001567453145980835
-0.00015471875667572021
-0.00015307962894439697
-0.000151902437210083
-0.00015121698379516602
-0.0001510530710220337
-0.00015147030353546143
-0.00015242397785186768
-0.00015385448932647705
-0.00015585124492645264
-0.00015823543071746826
-0.00016097724437713623
-0.0001639723777770996
-0.00016699731349945068
-0.00016999244689941406
-0.00017280876636505127
-0.00017532706260681152
-0.00017733871936798096
4.172325134277344e-05
4.0590763092041016e-05
4.009902477264404e-05
3.993511199951172e-05
4.012882709503174e-05
4.0411949157714844e-05
4.06801700592041e-05
4.0784478187561035e-05
4.062056541442871e-05
3.9964914321899414e-05
3.871321678161621e-05
3.674626350402832e-05
3.3989548683166504e-05
3.053247928619385e-05
2.6226043701171875e-05
2.1278858184814453e-05
1.5720725059509277e-05
9.834766387939453e-06
3.7848949432373047e-06
-2.205371856689453e-06
-7.957220077514648e-06
-1.3187527656555176e-05
-1.7657876014709473e-05
-2.1338462829589844e-05
-2.4110078811645508e-05
-2.5913119316101074e-05
-2.6941299438476562e-05
-2.7045607566833496e-05
-2.6598572731018066e-05
-2.5540590286254883e-05
-2.4080276489257812e-05
-2.2456049919128418e-05
-2.072751522064209e-05
-1.9177794456481934e-05
-1.798570156097412e-05
-1.7389655113220215e-05
-1.753866672515869e-05
-1.8849968910217285e-05
-2.1412968635559082e-05
-2.5391578674316406e-05
-3.084540367126465e-05
-3.793835639953613e-05
-4.647672176361084e-05
-5.6490302085876465e-05
-6.780028343200684e-05
-8.031725883483887e-05
-9.392201900482178e-05
-0.00010854005813598633
-0.00012382864952087402
-0.00013966858386993408
-0.00015561282634735107
-0.00017130374908447266
-0.00018627941608428955