# vtk DataFile Version 3.0
2D PINN Solution
ASCII
DATASET STRUCTURED_GRID
DIMENSIONS 100 100 1
POINTS 10000 float
-1.0 -1.0 0.0
-0.9797979797979798 -1.0 0.0
-0.9595959595959596 -1.0 0.0
-0.9393939393939394 -1.0 0.0
-0.9191919191919192 -1.0 0.0
-0.898989898989899 -1.0 0.0
-0.8787878787878788 -1.0 0.0
-0.8585858585858586 -1.0 0.0
-0.8383838383838383 -1.0 0.0
-0.8181818181818181 -1.0 0.0
-0.797979797979798 -1.0 0.0
-0.7777777777777778 -1.0 0.0
-0.7575757575757576 -1.0 0.0
-0.7373737373737373 -1.0 0.0
-0.7171717171717171 -1.0 0.0
-0.696969696969697 -1.0 0.0
-0.6767676767676767 -1.0 0.0
-0.6565656565656566 -1.0 0.0
-0.6363636363636364 -1.0 0.0
-0.6161616161616161 -1.0 0.0
-0.5959595959595959 -1.0 0.0
-0.5757575757575757 -1.0 0.0
-0.5555555555555556 -1.0 0.0
-0.5353535353535352 -1.0 0.0
-0.5151515151515151 -1.0 0.0
-0.4949494949494949 -1.0 0.0
-0.4747474747474747 -1.0 0.0
-0.4545454545454545 -1.0 0.0
-0.43434343434343425 -1.0 0.0
-0.41414141414141414 -1.0 0.0
-0.3939393939393939 -1.0 0.0
-0.3737373737373737 -1.0 0.0
-0.3535353535353535 -1.0 0.0
-0.33333333333333326 -1.0 0.0
-0.31313131313131304 -1.0 0.0
-0.2929292929292928 -1.0 0.0
-0.2727272727272727 -1.0 0.0
-0.2525252525252525 -1.0 0.0
-0.23232323232323226 -1.0 0.0
-0.21212121212121204 -1.0 0.0
-0.19191919191919182 -1.0 0.0
-0.1717171717171716 -1.0 0.0
-0.1515151515151515 -1.0 0.0
-0.13131313131313127 -1.0 0.0
-0.11111111111111105 -1.0 0.0
-0.09090909090909083 -1.0 0.0
-0.07070707070707061 -1.0 0.0
-0.050505050505050386 -1.0 0.0
-0.030303030303030276 -1.0 0.0
-0.010101010101010055 -1.0 0.0
0.010101010101010166 -1.0 0.0
0.030303030303030498 -1.0 0.0
0.05050505050505061 -1.0 0.0
0.07070707070707072 -1.0 0.0
0.09090909090909105 -1.0 0.0
0.11111111111111116 -1.0 0.0
0.1313131313131315 -1.0 0.0
0.1515151515151516 -1.0 0.0
0.1717171717171717 -1.0 0.0
0.19191919191919204 -1.0 0.0
0.21212121212121215 -1.0 0.0
0.2323232323232325 -1.0 0.0
0.2525252525252526 -1.0 0.0
0.27272727272727293 -1.0 0.0
0.29292929292929304 -1.0 0.0
0.31313131313131315 -1.0 0.0
0.3333333333333335 -1.0 0.0
0.3535353535353536 -1.0 0.0
0.3737373737373739 -1.0 0.0
0.39393939393939403 -1.0 0.0
0.41414141414141437 -1.0 0.0
0.4343434343434345 -1.0 0.0
0.4545454545454546 -1.0 0.0
0.4747474747474749 -1.0 0.0
0.49494949494949503 -1.0 0.0
0.5151515151515154 -1.0 0.0
0.5353535353535355 -1.0 0.0
0.5555555555555556 -1.0 0.0
0.5757575757575759 -1.0 0.0
0.595959595959596 -1.0 0.0
0.6161616161616164 -1.0 0.0
0.6363636363636365 -1.0 0.0
0.6565656565656568 -1.0 0.0
0.6767676767676769 -1.0 0.0
0.696969696969697 -1.0 0.0
0.7171717171717173 -1.0 0.0
0.7373737373737375 -1.0 0.0
0.7575757575757578 -1.0 0.0
0.7777777777777779 -1.0 0.0
0.7979797979797982 -1.0 0.0
0.8181818181818183 -1.0 0.0
0.8383838383838385 -1.0 0.0
0.8585858585858588 -1.0 0.0
0.8787878787878789 -1.0 0.0
0.8989898989898992 -1.0 0.0
0.9191919191919193 -1.0 0.0
0.9393939393939394 -1.0 0.0
0.9595959595959598 -1.0 0.0
0.9797979797979799 -1.0 0.0
1.0 -1.0 0.0
-1.0 -0.9797979797979798 0.0
-0.9797979797979798 -0.9797979797979798 0.0
-0.9595959595959596 -0.9797979797979798 0.0
-0.9393939393939394 -0.9797979797979798 0.0
-0.9191919191919192 -0.9797979797979798 0.0
-0.898989898989899 -0.9797979797979798 0.0
-0.8787878787878788 -0.9797979797979798 0.0
-0.8585858585858586 -0.9797979797979798 0.0
-0.8383838383838383 -0.9797979797979798 0.0
-0.8181818181818181 -0.9797979797979798 0.0
-0.797979797979798 -0.9797979797979798 0.0
-0.7777777777777778 -0.9797979797979798 0.0
-0.7575757575757576 -0.9797979797979798 0.0
-0.7373737373737373 -0.9797979797979798 0.0
-0.7171717171717171 -0.9797979797979798 0.0
-0.696969696969697 -0.9797979797979798 0.0
-0.6767676767676767 -0.9797979797979798 0.0
-0.6565656565656566 -0.9797979797979798 0.0
-0.6363636363636364 -0.9797979797979798 0.0
-0.6161616161616161 -0.9797979797979798 0.0
-0.5959595959595959 -0.9797979797979798 0.0
-0.5757575757575757 -0.9797979797979798 0.0
-0.5555555555555556 -0.9797979797979798 0.0
-0.5353535353535352 -0.9797979797979798 0.0
-0.5151515151515151 -0.9797979797979798 0.0
-0.4949494949494949 -0.9797979797979798 0.0
-0.4747474747474747 -0.9797979797979798 0.0
-0.4545454545454545 -0.9797979797979798 0.0
-0.43434343434343425 -0.9797979797979798 0.0
-0.41414141414141414 -0.9797979797979798 0.0
-0.3939393939393939 -0.9797979797979798 0.0
-0.3737373737373737 -0.9797979797979798 0.0
-0.3535353535353535 -0.9797979797979798 0.0
-0.33333333333333326 -0.9797979797979798 0.0
-0.31313131313131304 -0.9797979797979798 0.0
-0.2929292929292928 -0.9797979797979798 0.0
-0.2727272727272727 -0.9797979797979798 0.0
-0.2525252525252525 -0.9797979797979798 0.0
-0.23232323232323226 -0.9797979797979798 0.0
-0.21212121212121204 -0.9797979797979798 0.0
-0.19191919191919182 -0.9797979797979798 0.0
-0.1717171717171716 -0.9797979797979798 0.0
-0.1515151515151515 -0.9797979797979798 0.0
-0.13131313131313127 -0.9797979797979798 0.0
-0.11111111111111105 -0.9797979797979798 0.0
-0.09090909090909083 -0.9797979797979798 0.0
-0.07070707070707061 -0.9797979797979798 0.0
-0.050505050505050386 -0.9797979797979798 0.0
-0.030303030303030276 -0.9797979797979798 0.0
-0.010101010101010055 -0.9797979797979798 0.0
0.010101010101010166 -0.9797979797979798 0.0
0.030303030303030498 -0.9797979797979798 0.0
0.05050505050505061 -0.9797979797979798 0.0
0.07070707070707072 -0.9797979797979798 0.0
0.09090909090909105 -0.9797979797979798 0.0
0.11111111111111116 -0.9797979797979798 0.0
0.1313131313131315 -0.9797979797979798 0.0
0.1515151515151516 -0.9797979797979798 0.0
0.1717171717171717 -0.9797979797979798 0.0
0.19191919191919204 -0.9797979797979798 0.0
0.21212121212121215 -0.9797979797979798 0.0
0.2323232323232325 -0.9797979797979798 0.0
0.2525252525252526 -0.9797979797979798 0.0
0.27272727272727293 -0.9797979797979798 0.0
0.29292929292929304 -0.9797979797979798 0.0
0.31313131313131315 -0.9797979797979798 0.0
0.3333333333333335 -0.9797979797979798 0.0
0.3535353535353536 -0.9797979797979798 0.0
0.3737373737373739 -0.9797979797979798 0.0
0.39393939393939403 -0.9797979797979798 0.0
0.41414141414141437 -0.9797979797979798 0.0
0.4343434343434345 -0.9797979797979798 0.0
0.4545454545454546 -0.9797979797979798 0.0
0.4747474747474749 -0.9797979797979798 0.0
0.49494949494949503 -0.9797979797979798 0.0
0.5151515151515154 -0.9797979797979798 0.0
0.5353535353535355 -0.9797979797979798 0.0
0.5555555555555556 -0.9797979797979798 0.0
0.5757575757575759 -0.9797979797979798 0.0
0.595959595959596 -0.9797979797979798 0.0
0.6161616161616164 -0.9797979797979798 0.0
0.6363636363636365 -0.9797979797979798 0.0
0.6565656565656568 -0.9797979797979798 0.0
0.6767676767676769 -0.9797979797979798 0.0
0.696969696969697 -0.9797979797979798 0.0
0.7171717171717173 -0.9797979797979798 0.0
0.7373737373737375 -0.9797979797979798 0.0
0.7575757575757578 -0.9797979797979798 0.0
0.7777777777777779 -0.9797979797979798 0.0
0.7979797979797982 -0.9797979797979798 0.0
0.8181818181818183 -0.9797979797979798 0.0
0.8383838383838385 -0.9797979797979798 0.0
0.8585858585858588 -0.9797979797979798 0.0
0.8787878787878789 -0.9797979797979798 0.0
0.8989898989898992 -0.9797979797979798 0.0
0.9191919191919193 -0.9797979797979798 0.0
0.9393939393939394 -0.9797979797979798 0.0
0.9595959595959598 -0.9797979797979798 0.0
0.9797979797979799 -0.9797979797979798 0.0
1.0 -0.9797979797979798 0.0
-1.0 -0.9595959595959596 0.0
-0.9797979797979798 -0.9595959595959596 0.0
-0.9595959595959596 -0.9595959595959596 0.0
-0.9393939393939394 -0.9595959595959596 0.0
-0.9191919191919192 -0.9595959595959596 0.0
-0.898989898989899 -0.9595959595959596 0.0
-0.8787878787878788 -0.9595959595959596 0.0
-0.8585858585858586 -0.9595959595959596 0.0
-0.8383838383838383 -0.9595959595959596 0.0
-0.8181818181818181 -0.9595959595959596 0.0
-0.797979797979798 -0.9595959595959596 0.0
-0.7777777777777778 -0.9595959595959596 0.0
-0.7575757575757576 -0.9595959595959596 0.0
-0.7373737373737373 -0.9595959595959596 0.0
-0.7171717171717171 -0.9595959595959596 0.0
-0.696969696969697 -0.9595959595959596 0.0
-0.6767676767676767 -0.9595959595959596 0.0
-0.6565656565656566 -0.9595959595959596 0.0
-0.6363636363636364 -0.9595959595959596 0.0
-0.6161616161616161 -0.9595959595959596 0.0
-0.5959595959595959 -0.9595959595959596 0.0
-0.5757575757575757 -0.9595959595959596 0.0
-0.5555555555555556 -0.9595959595959596 0.0
-0.5353535353535352 -0.9595959595959596 0.0
-0.5151515151515151 -0.9595959595959596 0.0
-0.4949494949494949 -0.9595959595959596 0.0
-0.4747474747474747 -0.9595959595959596 0.0
-0.4545454545454545 -0.9595959595959596 0.0
-0.43434343434343425 -0.9595959595959596 0.0
-0.41414141414141414 -0.9595959595959596 0.0
-0.3939393939393939 -0.9595959595959596 0.0
-0.3737373737373737 -0.9595959595959596 0.0
-0.3535353535353535 -0.9595959595959596 0.0
-0.33333333333333326 -0.9595959595959596 0.0
-0.31313131313131304 -0.9595959595959596 0.0
-0.2929292929292928 -0.9595959595959596 0.0
-0.2727272727272727 -0.9595959595959596 0.0
-0.2525252525252525 -0.9595959595959596 0.0
-0.23232323232323226 -0.9595959595959596 0.0
-0.21212121212121204 -0.9595959595959596 0.0
-0.19191919191919182 -0.9595959595959596 0.0
-0.1717171717171716 -0.9595959595959596 0.0
-0.1515151515151515 -0.9595959595959596 0.0
-0.13131313131313127 -0.9595959595959596 0.0
-0.11111111111111105 -0.9595959595959596 0.0
-0.09090909090909083 -0.9595959595959596 0.0
-0.07070707070707061 -0.9595959595959596 0.0
-0.050505050505050386 -0.9595959595959596 0.0
-0.030303030303030276 -0.9595959595959596 0.0
-0.010101010101010055 -0.9595959595959596 0.0
0.010101010101010166 -0.9595959595959596 0.0
0.030303030303030498 -0.9595959595959596 0.0
0.05050505050505061 -0.9595959595959596 0.0
0.07070707070707072 -0.9595959595959596 0.0
0.09090909090909105 -0.9595959595959596 0.0
0.11111111111111116 -0.9595959595959596 0.0
0.1313131313131315 -0.9595959595959596 0.0
0.1515151515151516 -0.9595959595959596 0.0
0.1717171717171717 -0.9595959595959596 0.0
0.19191919191919204 -0.9595959595959596 0.0
0.21212121212121215 -0.9595959595959596 0.0
[...]
POINT_DATA 10000
SCALARS u float 1
LOOKUP_TABLE default
-5.7131052017211914e-05
-6.815791130065918e-05
-7.897615432739258e-05
-8.937716484069824e-05
-9.931623935699463e-05
-0.0001086890697479248
-0.0001172870397567749
-0.0001252591609954834
-0.00013238191604614258
-0.0001388341188430786
-0.00014479458332061768
-0.0001500844955444336
-0.0001550912857055664
-0.0001598745584487915
-0.00016449391841888428
-0.00016911327838897705
-0.00017386674880981445
-0.00017873942852020264
-0.0001838207244873047
-0.0001891106367111206
-0.0001945197582244873
-0.00020019710063934326
-0.0002059638500213623
-0.00021176040172576904
-0.00021755695343017578
-0.00022332370281219482
-0.00022901594638824463
-0.00023455917835235596
-0.00024008750915527344
-0.000245511531829834
-0.00025084614753723145
-0.00025607645511627197
-0.00026120245456695557
-0.00026607513427734375
-0.00027073919773101807
-0.00027498602867126465
-0.0002787560224533081
-0.0002819150686264038
-0.00028426945209503174
-0.00028580427169799805
-0.0002863854169845581
-0.0002859532833099365
-0.0002846568822860718
-0.00028227269649505615
-0.00027899444103240967
-0.0002748817205429077
-0.0002700239419937134
-0.0002644956111907959
-0.00025832653045654297
-0.0002517104148864746
-0.00024472177028656006
-0.00023737549781799316
-0.0002297908067703247
-0.00022211670875549316
-0.000214308500289917
-0.00020648539066314697
-0.00019866228103637695
-0.00019095838069915771
-0.0001834481954574585
-0.0001760721206665039
-0.00016902387142181396
-0.00016236305236816406
-0.00015595555305480957
-0.0001500546932220459
-0.0001446455717086792
-0.00013966858386993408
-0.00013521313667297363
-0.00013136863708496094
-0.00012795627117156982
-0.00012511014938354492
-0.00012283027172088623
-0.00012108683586120605
-0.00011983513832092285
-0.00011914968490600586
-0.00011895596981048584
-0.0001192241907119751
-0.00012004375457763672
-0.00012134015560150146
-0.00012311339378356934
-0.00012537837028503418
-0.0001281648874282837
-0.00013150274753570557
-0.0001351684331893921
-0.00013931095600128174
-0.00014381110668182373
-0.00014866888523101807
-0.00015369057655334473
-0.00015886127948760986
-0.0001640915870666504
-0.0001691877841949463
-0.00017404556274414062
-0.00017862021923065186
-0.00018267333507537842
-0.0001862049102783203
-0.00018900632858276367
-0.00019109249114990234
-0.00019231438636779785
-0.0001926422119140625
-0.00019212067127227783
-0.00019057095050811768
-5.8978796005249023e-05
-6.93202018737793e-05
-7.937848567962646e-05
-8.906424045562744e-05
-9.82433557510376e-05
-0.00010691583156585693
-0.00011493265628814697
-0.00012223422527313232
-0.00012895464897155762
-0.00013500452041625977
-0.00014056265354156494
-0.0001456141471862793
-0.0001503974199295044
-0.00015501677989959717
-0.00015960633754730225
-0.00016418099403381348
-0.00016897916793823242
-0.00017395615577697754
-0.0001792311668395996
-0.00018474459648132324
-0.00019055604934692383
-0.0001963973045349121
-0.0002024322748184204
-0.0002084970474243164
-0.0002145320177078247
-0.00022049248218536377
-0.0002263188362121582
-0.0002321004867553711
-0.00023762881755828857
-0.00024309754371643066
-0.0002485215663909912
-0.00025375187397003174
-0.0002589225769042969
-0.0002638697624206543
-0.0002685338258743286
-0.000272899866104126
-0.0002766847610473633
-0.0002799481153488159
-0.00028246641159057617
-0.0002840757369995117
-0.00028480589389801025
-0.00028449296951293945
-0.00028315186500549316
-0.00028087198734283447
-0.00027763843536376953
-0.0002734959125518799
-0.000268593430519104
-0.000263020396232605
-0.00025688111782073975
-0.0002502351999282837
-0.00024318695068359375
-0.0002359449863433838
-0.00022855401039123535
-0.00022104382514953613
-0.00021348893642425537
-0.00020591914653778076
-0.00019852817058563232
-0.0001913011074066162
-0.0001843273639678955
-0.00017750263214111328
-0.00017105042934417725
-0.000164911150932312
-0.00015920400619506836
-0.0001538991928100586
-0.0001490563154220581
-0.00014469027519226074
-0.00014075636863708496
-0.00013737380504608154
-0.00013446807861328125
-0.00013203918933868408
-0.00013013184070587158
-0.00012859702110290527
-0.00012756884098052979
-0.00012695789337158203
-0.000126764178276062
-0.00012695789337158203
-0.00012761354446411133
-0.00012865662574768066
-0.00013011693954467773
-0.00013202428817749023
-0.000134393572807312
-0.00013723969459533691
-0.000140458345413208
-0.00014413893222808838
-0.0001481175422668457
-0.0001525580883026123
-0.00015720725059509277
-0.0001620650291442871
-0.00016701221466064453
-0.00017195940017700195
-0.00017674267292022705
-0.00018121302127838135
-0.00018528103828430176
-0.00018887221813201904
-0.00019177794456481934
-0.00019399821758270264
-0.00019535422325134277
-0.0001958608627319336
-0.00019541382789611816
-0.00019404292106628418
-6.039440631866455e-05
-7.002055644989014e-05
-7.934868335723877e-05
-8.830428123474121e-05
-9.675323963165283e-05
-0.00010479986667633057
-0.00011217594146728516
-0.00011903047561645508
-0.00012521445751190186
-0.00013083219528198242
-0.0001360774040222168
-0.0001408606767654419
-0.00014550983905792236
-0.00014998018741607666
-0.0001544654369354248
-0.00015906989574432373
-0.00016391277313232422
-0.0001690387725830078
-0.0001744478940963745
-0.00018011033535003662
-0.000186040997505188
-0.0001922398805618286
-0.00019849836826324463
-0.0002048015594482422
-0.00021104514598846436
-0.00021722912788391113
-0.0002231895923614502
-0.00022904574871063232
-0.00023470818996429443
-0.00024023652076721191
-0.0002456456422805786
-0.00025084614753723145
-0.0002560168504714966
-0.0002609938383102417
-0.0002657771110534668
-0.0002701878547668457
-0.00027413666248321533
-0.000277593731880188
-0.0002801865339279175
-0.00028204917907714844
-0.0002828538417816162
-0.00028273463249206543
-0.00028152763843536377
-0.00027933716773986816
-0.00027611851692199707
-0.00027199089527130127
-0.0002671182155609131
-0.0002615004777908325
-0.00025531649589538574
-0.000248640775680542
-0.00024159252643585205
-0.00023433566093444824
-0.00022692978382110596
-0.00021950900554656982
-0.00021213293075561523
-0.00020481646060943604
-0.00019760429859161377
-0.00019073486328125
-0.00018408894538879395
-0.00017771124839782715
-0.00017178058624267578
-0.00016616284847259521
-0.00016088783740997314
-0.0001561492681503296
-0.00015181303024291992
-0.00014798343181610107
-0.00014463067054748535
-0.00014175474643707275
-0.0001392960548400879
-0.00013734400272369385
-0.00013571977615356445
-0.00013460218906402588
-0.0001338273286819458
-0.00013336539268493652
-0.00013335049152374268
-0.00013366341590881348
-0.00013421475887298584
-0.00013515353202819824
-0.00013650953769683838
-0.00013811886310577393
-0.0001401454210281372
-0.00014261901378631592
-0.00014546513557434082
-0.00014872848987579346
-0.00015237927436828613
-0.00015641748905181885
-0.00016075372695922852
-0.0001652836799621582
-0.00017002224922180176
-0.00017470121383666992
-0.00017942488193511963
-0.00018389523029327393
-0.00018799304962158203
-0.00019162893295288086
-0.00019468367099761963
-0.00019697844982147217
-0.00019849836826324463
-0.00019912421703338623
-0.00019879639148712158
-0.00019752979278564453
-6.13480806350708e-05
-7.021427154541016e-05
-7.881224155426025e-05
-8.712708950042725e-05
-9.495019912719727e-05
-0.0001023709774017334
-0.00010916590690612793
-0.00011545419692993164
-0.00012126564979553223
-0.0001265406608581543
-0.00013142824172973633
-0.00013600289821624756
-0.0001404285430908203
-0.00014479458332061768
-0.0001491755247116089
-0.00015382468700408936
-0.00015863776206970215
-0.00016383826732635498
-0.00016936659812927246
-0.00017523765563964844
-0.00018140673637390137
-0.00018770992755889893
-0.0001942068338394165
-0.00020065903663635254
-0.00020714104175567627
-0.00021339952945709229
-0.00021958351135253906
-0.00022545456886291504
-0.00023111701011657715
-0.00023669004440307617
-0.00024208426475524902
-0.00024737417697906494
-0.00025252997875213623
-0.0002575516700744629
-0.00026237964630126953
-0.0002669095993041992
-0.0002709925174713135
-0.00027461349964141846
-0.00027742981910705566
-0.00027951598167419434
-0.00028058886528015137
-0.0002806335687637329
-0.0002796351909637451
-0.00027760863304138184
-0.00027452409267425537
-0.0002705007791519165
-0.00026564300060272217
-0.00025998055934906006
-0.0002537369728088379
-0.0002469569444656372
-0.00023987889289855957
-0.00023254752159118652
-0.0002251267433166504
-0.00021767616271972656
-0.00021031498908996582
-0.00020307302474975586
-0.0001960545778274536
-0.00018931925296783447
-0.00018292665481567383
-0.00017690658569335938
-0.00017122924327850342
-0.00016602873802185059
-0.00016120076179504395
-0.00015690922737121582
-0.00015303492546081543
-0.00014972686767578125
-0.00014682114124298096
-0.00014442205429077148
-0.0001424551010131836
-0.00014090538024902344
-0.00013975799083709717
-0.00013896822929382324
-0.00013856589794158936
-0.00013843178749084473
-0.00013862550258636475
-0.00013907253742218018
-0.00013974308967590332
-0.0001407414674758911
-0.00014194846153259277
-0.00014349818229675293
-0.0001453012228012085
-0.00014747679233551025
-0.0001500844955444336
-0.00015300512313842773
-0.00015631318092346191
-0.00016000866889953613
-0.0001640617847442627
-0.0001684129238128662
-0.00017289817333221436
-0.00017757713794708252
-0.0001821368932723999
-0.0001865774393081665
-0.00019071996212005615
-0.00019443035125732422
-0.00019758939743041992
-0.00020003318786621094
-0.00020164251327514648
-0.00020237267017364502
-0.00020219385623931885
-0.00020101666450500488
-6.179511547088623e-05
-6.996095180511475e-05
-7.797777652740479e-05
-8.55475664138794e-05
-9.284913539886475e-05
-9.961426258087158e-05
-0.00010593235492706299
-0.00011172890663146973
-0.00011710822582244873
-0.00012205541133880615
-0.00012668967247009277
-0.00013099610805511475
-0.00013519823551177979
-0.00013943016529083252
-0.00014381110668182373
-0.00014834105968475342
-0.00015322864055633545
-0.00015844404697418213
-0.00016407668590545654
-0.00017011165618896484
-0.00017637014389038086
-0.00018291175365447998
-0.00018957257270812988
-0.00019618868827819824
-0.0002027750015258789
-0.0002091526985168457
-0.00021538138389587402
-0.0002213120460510254
-0.0002269446849822998
-0.00023245811462402344
-0.00023791193962097168
-0.00024315714836120605
-0.0002482980489730835
-0.00025331974029541016
-0.0002583116292953491
-0.00026294589042663574
-0.0002672821283340454
-0.00027111172676086426
-0.0002742856740951538
-0.0002765655517578125
-0.00027798116207122803
-0.0002783238887786865
-0.0002775341272354126
-0.00027570128440856934
-0.00027285516262054443
-0.0002688765525817871
-0.0002640336751937866
-0.0002584308385848999
-0.00025212764739990234
-0.00024531781673431396
-0.0002381056547164917
-0.00023065507411956787
-0.00022311508655548096
-0.0002155601978302002
-0.00020810961723327637
-0.00020082294940948486
-0.0001938939094543457
-0.0001872032880783081
-0.0001809448003768921
-0.00017502903938293457
-0.00016954541206359863
-0.0001646280288696289
-0.00016014277935028076
-0.00015616416931152344
-0.00015276670455932617
-0.00014983117580413818
-0.00014735758304595947
-0.00014540553092956543
-0.00014390051364898682
-0.00014287233352661133
-0.00014218688011169434
-0.000141829252243042
-0.0001417994499206543
-0.00014199316501617432
-0.0001424849033355713
-0.00014317035675048828
-0.0001440495252609253
-0.00014513731002807617
-0.00014635920524597168
-0.00014790892601013184
-0.00014960765838623047
-0.00015169382095336914
-0.00015403330326080322
-0.00015673041343688965
-0.00015978515148162842
-0.00016318261623382568
-0.00016702711582183838
-0.00017116963863372803
-0.00017555058002471924
-0.00018005073070526123
-0.00018468499183654785
-0.0001891106367111206
-0.00019337236881256104
-0.00019718706607818604
-0.00020048022270202637
-0.00020298361778259277
-0.0002047717571258545
-0.0002056509256362915
-0.00020554661750793457
-0.0002044886350631714
-6.188452243804932e-05
-6.939470767974854e-05
-7.666647434234619e-05
-8.368492126464844e-05
-9.03010368347168e-05
-9.658932685852051e-05
-0.00010241568088531494
-0.00010782480239868164
-0.00011283159255981445
-0.00011745095252990723
-0.00012181699275970459
-0.00012595951557159424
-0.0001300126314163208
-0.00013412535190582275
-0.0001382976770401001
-0.00014287233352661133
-0.00014768540859222412
-0.00015297532081604004
-0.00015872716903686523
-0.00016476213932037354
-0.00017116963863372803
-0.00017783045768737793
-0.0001846104860305786
-0.0001913607120513916
-0.00019794702529907227
-0.0002044588327407837
-0.00021062791347503662
-0.000216558575630188
-0.0002222210168838501
-0.0002276003360748291
-0.0002329498529434204
-0.00023820996284484863
-0.00024339556694030762
-0.00024850666522979736
-0.0002535879611968994
-0.0002584308385848999
-0.000263020396232605
-0.0002671182155609131
-0.00027063488960266113
-0.000273287296295166
-0.0002750009298324585
-0.0002756863832473755
-0.0002752244472503662
-0.00027367472648620605
-0.0002709925174713135
-0.0002671778202056885
-0.0002624988555908203
-0.0002568960189819336
-0.0002504885196685791
-0.00024361908435821533
-0.00023627281188964844
-0.00022861361503601074
-0.00022086501121520996
-0.00021311640739440918
-0.00020545721054077148
-0.00019806623458862305
-0.00019097328186035156
-0.00018423795700073242
-0.00017799437046051025
-0.00017212331295013428
-0.00016677379608154297
-0.00016194581985473633
-0.0001577138900756836
-0.00015398859977722168
-0.00015084445476531982
-0.00014825165271759033
-0.0001461803913116455
-0.0001446753740310669
-0.00014360249042510986
-0.00014297664165496826
-0.00014282763004302979
-0.00014293193817138672
-0.00014334917068481445
-0.00014400482177734375
-0.00014483928680419922
-0.0001458674669265747
-0.00014701485633850098
-0.00014829635620117188
-0.00014972686767578125
-0.00015126168727874756
-0.00015302002429962158
-0.00015494227409362793
-0.00015716254711151123
-0.00015966594219207764
-0.00016260147094726562
-0.00016582012176513672
-0.0001694709062576294
-0.00017344951629638672
-0.0001776963472366333
-0.00018218159675598145
-0.00018677115440368652
-0.00019131600856781006
-0.00019565224647521973
-0.00019963085651397705
-0.0002030879259109497
-0.00020588934421539307
-0.0002078413963317871
-0.00020888447761535645
-0.0002088397741317749
-0.0002078711986541748
-6.155669689178467e-05
-6.845593452453613e-05
-7.507205009460449e-05
-8.149445056915283e-05
-8.757412433624268e-05
-9.340047836303711e-05
-9.879469871520996e-05
-0.00010378658771514893
-0.00010851025581359863
-0.00011280179023742676
-0.00011686980724334717
-0.00012080371379852295
-0.00012476742267608643
-0.0001286715269088745
-0.000132828950881958
-0.00013728439807891846
-0.00014212727546691895
-0.00014741718769073486
-0.00015310943126678467
-0.00015926361083984375
-0.00016574561595916748
-0.00017243623733520508
-0.0001793205738067627
-0.00018611550331115723
-0.00019280612468719482
-0.00019921362400054932
-0.00020541250705718994
-0.00021126866340637207
-0.0002168416976928711
-0.00022223591804504395
-0.00022746622562408447
-0.00023260712623596191
-0.00023783743381500244
-0.00024303793907165527
-0.0002482980489730835
-0.0002534538507461548
-0.0002582967281341553
-0.0002627521753311157
-0.00026661157608032227
-0.00026969611644744873
-0.00027182698249816895
-0.0002728402614593506
-0.00027276575565338135
-0.00027151405811309814
-0.0002690553665161133
-0.0002654939889907837
-0.0002608448266983032
-0.0002552419900894165
-0.00024884939193725586
-0.00024175643920898438
-0.00023424625396728516
-0.00022643804550170898
-0.00021839141845703125
-0.00021035969257354736
-0.00020241737365722656
-0.00019474327564239502
-0.00018739700317382812
-0.00018046796321868896
-0.00017400085926055908
-0.00016808509826660156
-0.0001626908779144287
-0.00015787780284881592
-0.00015373528003692627
-0.00015018880367279053
-0.0001472681760787964
-0.0001449882984161377
-0.00014324486255645752
-0.0001421421766281128
-0.00014153122901916504
-0.00014144182205200195
-0.0001417398452758789
-0.00014235079288482666
-0.00014324486255645752
-0.00014440715312957764
-0.00014571845531463623
-0.000147208571434021
-0.00014865398406982422
-0.00015024840831756592
-0.000151902437210083
-0.0001535564661026001
-0.00015538930892944336
-0.00015729665756225586
-0.00015948712825775146
-0.00016188621520996094
-0.00016458332538604736
-0.00016765296459197998
-0.00017116963863372803
-0.00017504394054412842
-0.0001792311668395996
-0.0001837313175201416
-0.00018838047981262207
-0.00019302964210510254
-0.00019761919975280762
-0.00020179152488708496
-0.00020544230937957764
-0.00020840764045715332
-0.00021062791347503662
-0.00021186470985412598
-0.00021201372146606445
-0.00021110475063323975
-6.084144115447998e-05
-6.715953350067139e-05
-7.319450378417969e-05
-7.905066013336182e-05
-8.465349674224854e-05
-8.997321128845215e-05
-9.499490261077881e-05
-9.965896606445312e-05
-0.00010405480861663818
-0.0001081228256225586
-0.00011195242404937744
-0.00011573731899261475
-0.00011944770812988281
-0.0001232922077178955
-0.00012730062007904053
-0.00013168156147003174
-0.00013652443885803223
-0.00014172494411468506
-0.00014747679233551025
-0.00015364587306976318
-0.0001601576805114746
-0.00016695261001586914
-0.00017377734184265137
-0.00018058717250823975
-0.0001872628927230835
-0.000193670392036438
-0.00019977986812591553
-0.00020548701286315918
-0.00021092593669891357
-0.00021623075008392334
-0.00022141635417938232
-0.00022655725479125977
-0.00023184716701507568
-0.0002372264862060547
-0.00024262070655822754
-0.00024808943271636963
-0.0002533644437789917
-0.00025822222232818604
-0.0002624988555908203
-0.0002660006284713745
-0.00026857852935791016
-0.00026994943618774414
-0.0002702772617340088
-0.0002693086862564087
-0.0002671182155609131
-0.00026370584964752197
-0.00025916099548339844
-0.0002536177635192871
-0.000247076153755188
-0.0002399235963821411
-0.0002321004867553711
-0.00022393465042114258
-0.00021557509899139404
-0.00020715594291687012
-0.00019881129264831543
-0.0001907646656036377
-0.0001830458641052246
-0.00017568469047546387
-0.00016899406909942627
-0.00016276538372039795
-0.00015725195407867432
-0.00015237927436828613
-0.0001481473445892334
-0.0001447051763534546
-0.00014199316501617432
-0.00013996660709381104
-0.0001385509967803955
-0.00013783574104309082
-0.0001376718282699585
-0.000138014554977417
-0.00013890862464904785
-0.00014005601406097412
-0.00014153122901916504
-0.00014322996139526367
-0.00014507770538330078
-0.00014704465866088867
-0.00014899671077728271
-0.00015094876289367676
-0.00015281140804290771
-0.00015476346015930176
-0.0001566857099533081
-0.00015872716903686523
-0.0001608133316040039
-0.000163152813911438
-0.00016574561595916748
-0.00016868114471435547
-0.0001720637083053589
-0.0001758486032485962
-0.00017996132373809814
-0.00018443167209625244
-0.00018912553787231445
-0.0001939833164215088
-0.00019878149032592773
-0.0002032071352005005
-0.00020731985569000244
-0.00021061301231384277
-0.00021311640739440918
-0.0002146214246749878
-0.00021497905254364014
-0.00021423399448394775
-5.976855754852295e-05
-6.546080112457275e-05
-7.107853889465332e-05
-7.641315460205078e-05
-8.156895637512207e-05
-8.64565372467041e-05
-9.109079837799072e-05
-9.545683860778809e-05
-9.955465793609619e-05
-0.00010338425636291504
-0.00010704994201660156
-0.0001106560230255127
-0.00011420249938964844
-0.00011786818504333496
-0.00012183189392089844
-0.00012612342834472656
-0.00013080239295959473
-0.00013600289821624756
-0.00014175474643707275
-0.00014798343181610107
-0.00015445053577423096
-0.0001611858606338501
-0.00016807019710540771
-0.00017486512660980225
-0.0001815110445022583
-0.00018778443336486816
-0.00019371509552001953
-0.00019937753677368164
-0.00020472705364227295
-0.0002098679542541504
-0.00021500885486602783
-0.00022019445896148682
-0.00022557377815246582
-0.00023114681243896484
-0.0002368837594985962
-0.00024272501468658447
-0.0002483874559402466
-0.00025372207164764404
-0.000258520245552063
-0.000262528657913208
-0.00026541948318481445
-0.0002672821283340454
-0.0002678334712982178
-0.0002671480178833008