# vtk DataFile Version 3.0
2D PINN Solution
ASCII
DATASET STRUCTURED_GRID
DIMENSIONS 100 100 1
POINTS 10000 float
-1.0 -1.0 0.0
-0.9797979797979798 -1.0 0.0
-0.9595959595959596 -1.0 0.0
-0.9393939393939394 -1.0 0.0
-0.9191919191919192 -1.0 0.0
-0.898989898989899 -1.0 0.0
-0.8787878787878788 -1.0 0.0
-0.8585858585858586 -1.0 0.0
-0.8383838383838383 -1.0 0.0
-0.8181818181818181 -1.0 0.0
-0.797979797979798 -1.0 0.0
-0.7777777777777778 -1.0 0.0
-0.7575757575757576 -1.0 0.0
-0.7373737373737373 -1.0 0.0
-0.7171717171717171 -1.0 0.0
-0.696969696969697 -1.0 0.0
-0.6767676767676767 -1.0 0.0
-0.6565656565656566 -1.0 0.0
-0.6363636363636364 -1.0 0.0
-0.6161616161616161 -1.0 0.0
-0.5959595959595959 -1.0 0.0
-0.5757575757575757 -1.0 0.0
-0.5555555555555556 -1.0 0.0
-0.5353535353535352 -1.0 0.0
-0.5151515151515151 -1.0 0.0
-0.4949494949494949 -1.0 0.0
-0.4747474747474747 -1.0 0.0
-0.4545454545454545 -1.0 0.0
-0.43434343434343425 -1.0 0.0
-0.41414141414141414 -1.0 0.0
-0.3939393939393939 -1.0 0.0
-0.3737373737373737 -1.0 0.0
-0.3535353535353535 -1.0 0.0
-0.33333333333333326 -1.0 0.0
-0.31313131313131304 -1.0 0.0
-0.2929292929292928 -1.0 0.0
-0.2727272727272727 -1.0 0.0
-0.2525252525252525 -1.0 0.0
-0.23232323232323226 -1.0 0.0
-0.21212121212121204 -1.0 0.0
-0.19191919191919182 -1.0 0.0
-0.1717171717171716 -1.0 0.0
-0.1515151515151515 -1.0 0.0
-0.13131313131313127 -1.0 0.0
-0.11111111111111105 -1.0 0.0
-0.09090909090909083 -1.0 0.0
-0.07070707070707061 -1.0 0.0
-0.050505050505050386 -1.0 0.0
-0.030303030303030276 -1.0 0.0
-0.010101010101010055 -1.0 0.0
0.010101010101010166 -1.0 0.0
0.030303030303030498 -1.0 0.0
0.05050505050505061 -1.0 0.0
0.07070707070707072 -1.0 0.0
0.09090909090909105 -1.0 0.0
0.11111111111111116 -1.0 0.0
0.1313131313131315 -1.0 0.0
0.1515151515151516 -1.0 0.0
0.1717171717171717 -1.0 0.0
0.19191919191919204 -1.0 0.0
0.21212121212121215 -1.0 0.0
0.2323232323232325 -1.0 0.0
0.2525252525252526 -1.0 0.0
0.27272727272727293 -1.0 0.0
0.29292929292929304 -1.0 0.0
0.31313131313131315 -1.0 0.0
0.3333333333333335 -1.0 0.0
0.3535353535353536 -1.0 0.0
0.3737373737373739 -1.0 0.0
0.39393939393939403 -1.0 0.0
0.41414141414141437 -1.0 0.0
0.4343434343434345 -1.0 0.0
0.4545454545454546 -1.0 0.0
0.4747474747474749 -1.0 0.0
0.49494949494949503 -1.0 0.0
0.5151515151515154 -1.0 0.0
0.5353535353535355 -1.0 0.0
0.5555555555555556 -1.0 0.0
0.5757575757575759 -1.0 0.0
0.595959595959596 -1.0 0.0
0.6161616161616164 -1.0 0.0
0.6363636363636365 -1.0 0.0
0.6565656565656568 -1.0 0.0
0.6767676767676769 -1.0 0.0
0.696969696969697 -1.0 0.0
0.7171717171717173 -1.0 0.0
0.7373737373737375 -1.0 0.0
0.7575757575757578 -1.0 0.0
0.7777777777777779 -1.0 0.0
0.7979797979797982 -1.0 0.0
0.8181818181818183 -1.0 0.0
0.8383838383838385 -1.0 0.0
0.8585858585858588 -1.0 0.0
0.8787878787878789 -1.0 0.0
0.8989898989898992 -1.0 0.0
0.9191919191919193 -1.0 0.0
0.9393939393939394 -1.0 0.0
0.9595959595959598 -1.0 0.0
0.9797979797979799 -1.0 0.0
1.0 -1.0 0.0
-1.0 -0.9797979797979798 0.0
-0.9797979797979798 -0.9797979797979798 0.0
-0.9595959595959596 -0.9797979797979798 0.0
-0.9393939393939394 -0.9797979797979798 0.0
-0.9191919191919192 -0.9797979797979798 0.0
-0.898989898989899 -0.9797979797979798 0.0
-0.8787878787878788 -0.9797979797979798 0.0
-0.8585858585858586 -0.9797979797979798 0.0
-0.8383838383838383 -0.9797979797979798 0.0
-0.8181818181818181 -0.9797979797979798 0.0
-0.797979797979798 -0.9797979797979798 0.0
-0.7777777777777778 -0.9797979797979798 0.0
-0.7575757575757576 -0.9797979797979798 0.0
-0.7373737373737373 -0.9797979797979798 0.0
-0.7171717171717171 -0.9797979797979798 0.0
-0.696969696969697 -0.9797979797979798 0.0
-0.6767676767676767 -0.9797979797979798 0.0
-0.6565656565656566 -0.9797979797979798 0.0
-0.6363636363636364 -0.9797979797979798 0.0
-0.6161616161616161 -0.9797979797979798 0.0
-0.5959595959595959 -0.9797979797979798 0.0
-0.5757575757575757 -0.9797979797979798 0.0
-0.5555555555555556 -0.9797979797979798 0.0
-0.5353535353535352 -0.9797979797979798 0.0
-0.5151515151515151 -0.9797979797979798 0.0
-0.4949494949494949 -0.9797979797979798 0.0
-0.4747474747474747 -0.9797979797979798 0.0
-0.4545454545454545 -0.9797979797979798 0.0
-0.43434343434343425 -0.9797979797979798 0.0
-0.41414141414141414 -0.9797979797979798 0.0
-0.3939393939393939 -0.9797979797979798 0.0
-0.3737373737373737 -0.9797979797979798 0.0
-0.3535353535353535 -0.9797979797979798 0.0
-0.33333333333333326 -0.9797979797979798 0.0
-0.31313131313131304 -0.9797979797979798 0.0
-0.2929292929292928 -0.9797979797979798 0.0
-0.2727272727272727 -0.9797979797979798 0.0
-0.2525252525252525 -0.9797979797979798 0.0
-0.23232323232323226 -0.9797979797979798 0.0
-0.21212121212121204 -0.9797979797979798 0.0
-0.19191919191919182 -0.9797979797979798 0.0
-0.1717171717171716 -0.9797979797979798 0.0
-0.1515151515151515 -0.9797979797979798 0.0
-0.13131313131313127 -0.9797979797979798 0.0
-0.11111111111111105 -0.9797979797979798 0.0
-0.09090909090909083 -0.9797979797979798 0.0
-0.07070707070707061 -0.9797979797979798 0.0
-0.050505050505050386 -0.9797979797979798 0.0
-0.030303030303030276 -0.9797979797979798 0.0
-0.010101010101010055 -0.9797979797979798 0.0
0.010101010101010166 -0.9797979797979798 0.0
0.030303030303030498 -0.9797979797979798 0.0
0.05050505050505061 -0.9797979797979798 0.0
0.07070707070707072 -0.9797979797979798 0.0
0.09090909090909105 -0.9797979797979798 0.0
0.11111111111111116 -0.9797979797979798 0.0
0.1313131313131315 -0.9797979797979798 0.0
0.1515151515151516 -0.9797979797979798 0.0
0.1717171717171717 -0.9797979797979798 0.0
0.19191919191919204 -0.9797979797979798 0.0
0.21212121212121215 -0.9797979797979798 0.0
0.2323232323232325 -0.9797979797979798 0.0
0.2525252525252526 -0.9797979797979798 0.0
0.27272727272727293 -0.9797979797979798 0.0
0.29292929292929304 -0.9797979797979798 0.0
0.31313131313131315 -0.9797979797979798 0.0
0.3333333333333335 -0.9797979797979798 0.0
0.3535353535353536 -0.9797979797979798 0.0
0.3737373737373739 -0.9797979797979798 0.0
0.39393939393939403 -0.9797979797979798 0.0
0.41414141414141437 -0.9797979797979798 0.0
0.4343434343434345 -0.9797979797979798 0.0
0.4545454545454546 -0.9797979797979798 0.0
0.4747474747474749 -0.9797979797979798 0.0
0.49494949494949503 -0.9797979797979798 0.0
0.5151515151515154 -0.9797979797979798 0.0
0.5353535353535355 -0.9797979797979798 0.0
0.5555555555555556 -0.9797979797979798 0.0
0.5757575757575759 -0.9797979797979798 0.0
0.595959595959596 -0.9797979797979798 0.0
0.6161616161616164 -0.9797979797979798 0.0
0.6363636363636365 -0.9797979797979798 0.0
0.6565656565656568 -0.9797979797979798 0.0
0.6767676767676769 -0.9797979797979798 0.0
0.696969696969697 -0.9797979797979798 0.0
0.7171717171717173 -0.9797979797979798 0.0
0.7373737373737375 -0.9797979797979798 0.0
0.7575757575757578 -0.9797979797979798 0.0
0.7777777777777779 -0.9797979797979798 0.0
0.7979797979797982 -0.9797979797979798 0.0
0.8181818181818183 -0.9797979797979798 0.0
0.8383838383838385 -0.9797979797979798 0.0
0.8585858585858588 -0.9797979797979798 0.0
0.8787878787878789 -0.9797979797979798 0.0
0.8989898989898992 -0.9797979797979798 0.0
0.9191919191919193 -0.9797979797979798 0.0
0.9393939393939394 -0.9797979797979798 0.0
0.9595959595959598 -0.9797979797979798 0.0
0.9797979797979799 -0.9797979797979798 0.0
1.0 -0.9797979797979798 0.0
-1.0 -0.9595959595959596 0.0
-0.9797979797979798 -0.9595959595959596 0.0
-0.9595959595959596 -0.9595959595959596 0.0
-0.9393939393939394 -0.9595959595959596 0.0
-0.9191919191919192 -0.9595959595959596 0.0
-0.898989898989899 -0.9595959595959596 0.0
-0.8787878787878788 -0.9595959595959596 0.0
-0.8585858585858586 -0.9595959595959596 0.0
-0.8383838383838383 -0.9595959595959596 0.0
-0.8181818181818181 -0.9595959595959596 0.0
-0.797979797979798 -0.9595959595959596 0.0
-0.7777777777777778 -0.9595959595959596 0.0
-0.7575757575757576 -0.9595959595959596 0.0
-0.7373737373737373 -0.9595959595959596 0.0
-0.7171717171717171 -0.9595959595959596 0.0
-0.696969696969697 -0.9595959595959596 0.0
-0.6767676767676767 -0.9595959595959596 0.0
-0.6565656565656566 -0.9595959595959596 0.0
-0.6363636363636364 -0.9595959595959596 0.0
-0.6161616161616161 -0.9595959595959596 0.0
-0.5959595959595959 -0.9595959595959596 0.0
-0.5757575757575757 -0.9595959595959596 0.0
-0.5555555555555556 -0.9595959595959596 0.0
-0.5353535353535352 -0.9595959595959596 0.0
-0.5151515151515151 -0.9595959595959596 0.0
-0.4949494949494949 -0.9595959595959596 0.0
-0.4747474747474747 -0.9595959595959596 0.0
-0.4545454545454545 -0.9595959595959596 0.0
-0.43434343434343425 -0.9595959595959596 0.0
-0.41414141414141414 -0.9595959595959596 0.0
-0.3939393939393939 -0.9595959595959596 0.0
-0.3737373737373737 -0.9595959595959596 0.0
-0.3535353535353535 -0.9595959595959596 0.0
-0.33333333333333326 -0.9595959595959596 0.0
-0.31313131313131304 -0.9595959595959596 0.0
-0.2929292929292928 -0.9595959595959596 0.0
-0.2727272727272727 -0.9595959595959596 0.0
-0.2525252525252525 -0.9595959595959596 0.0
-0.23232323232323226 -0.9595959595959596 0.0
-0.21212121212121204 -0.9595959595959596 0.0
-0.19191919191919182 -0.9595959595959596 0.0
-0.1717171717171716 -0.9595959595959596 0.0
-0.1515151515151515 -0.9595959595959596 0.0
-0.13131313131313127 -0.9595959595959596 0.0
-0.11111111111111105 -0.9595959595959596 0.0
-0.09090909090909083 -0.9595959595959596 0.0
-0.07070707070707061 -0.9595959595959596 0.0
-0.050505050505050386 -0.9595959595959596 0.0
-0.030303030303030276 -0.9595959595959596 0.0
-0.010101010101010055 -0.9595959595959596 0.0
0.010101010101010166 -0.9595959595959596 0.0
0.030303030303030498 -0.9595959595959596 0.0
0.05050505050505061 -0.9595959595959596 0.0
0.07070707070707072 -0.9595959595959596 0.0
0.09090909090909105 -0.9595959595959596 0.0
0.11111111111111116 -0.9595959595959596 0.0
0.1313131313131315 -0.9595959595959596 0.0
0.1515151515151516 -0.9595959595959596 0.0
0.1717171717171717 -0.9595959595959596 0.0
0.19191919191919204 -0.9595959595959596 0.0
0.21212121212121215 -0.9595959595959596 0.0
[...]
POINT_DATA 10000
SCALARS u float 1
LOOKUP_TABLE default
0.00017499923706054688
0.00016339123249053955
0.00015152990818023682
0.00013956427574157715
0.0001275390386581421
0.00011567771434783936
0.00010399520397186279
9.265542030334473e-05
8.180737495422363e-05
7.143616676330566e-05
6.179511547088623e-05
5.291402339935303e-05
4.4852495193481445e-05
3.7729740142822266e-05
3.14563512802124e-05
2.612173557281494e-05
2.1710991859436035e-05
1.8075108528137207e-05
1.5273690223693848e-05
1.3113021850585938e-05
1.150369644165039e-05
1.029670238494873e-05
9.447336196899414e-06
8.702278137207031e-06
8.046627044677734e-06
7.4803829193115234e-06
6.735324859619141e-06
6.034970283508301e-06
5.170702934265137e-06
4.455447196960449e-06
3.680586814880371e-06
3.084540367126465e-06
2.7120113372802734e-06
2.637505531311035e-06
2.8759241104125977e-06
3.5762786865234375e-06
4.6193599700927734e-06
6.094574928283691e-06
7.912516593933105e-06
1.0147690773010254e-05
1.271069049835205e-05
1.5556812286376953e-05
1.882016658782959e-05
2.2396445274353027e-05
2.6419758796691895e-05
3.072619438171387e-05
3.5375356674194336e-05
4.017353057861328e-05
4.500150680541992e-05
4.965066909790039e-05
5.391240119934082e-05
5.739927291870117e-05
5.9977173805236816e-05
6.155669689178467e-05
6.224215030670166e-05
6.216764450073242e-05
6.178021430969238e-05
6.161630153656006e-05
6.218254566192627e-05
6.410479545593262e-05
6.753206253051758e-05
7.283687591552734e-05
7.964670658111572e-05
8.748471736907959e-05
9.544193744659424e-05
0.00010247528553009033
0.00010745227336883545
0.0001093149185180664
0.00010769069194793701
0.00010254979133605957
9.486079216003418e-05
8.577108383178711e-05
7.674098014831543e-05
6.884336471557617e-05
6.255507469177246e-05
5.8010220527648926e-05
5.461275577545166e-05
5.188584327697754e-05
4.9233436584472656e-05
4.598498344421387e-05
4.209578037261963e-05
3.762543201446533e-05
3.316998481750488e-05
2.9549002647399902e-05
2.7760863304138184e-05
2.8520822525024414e-05
3.2141804695129395e-05
3.8295984268188477e-05
4.604458808898926e-05
5.3748488426208496e-05
5.961954593658447e-05
6.172060966491699e-05
5.860626697540283e-05
4.909932613372803e-05
3.3095479011535645e-05
1.1056661605834961e-05
-1.5690922737121582e-05
-4.550814628601074e-05
-7.639825344085693e-05
-0.00010658800601959229
0.00017271935939788818
0.00016036629676818848
0.0001478046178817749
0.00013534724712371826
0.000122949481010437
0.00011073052883148193
9.88692045211792e-05
8.749961853027344e-05
7.651746273040771e-05
6.619095802307129e-05
5.666911602020264e-05
4.7907233238220215e-05
3.997981548309326e-05
3.294646739959717e-05
2.6851892471313477e-05
2.1696090698242188e-05
1.7374753952026367e-05
1.3872981071472168e-05
1.1146068572998047e-05
9.03010368347168e-06
7.4803829193115234e-06
6.3925981521606445e-06
5.602836608886719e-06
5.0067901611328125e-06
4.604458808898926e-06
4.291534423828125e-06
3.9637088775634766e-06
3.6656856536865234e-06
3.3080577850341797e-06
3.0547380447387695e-06
2.8312206268310547e-06
2.637505531311035e-06
2.7120113372802734e-06
2.8759241104125977e-06
3.2782554626464844e-06
3.7997961044311523e-06
4.51505184173584e-06
5.349516868591309e-06
6.258487701416016e-06
7.361173629760742e-06
8.419156074523926e-06
9.641051292419434e-06
1.1011958122253418e-05
1.265108585357666e-05
1.449882984161377e-05
1.6763806343078613e-05
1.9416213035583496e-05
2.251565456390381e-05
2.5957822799682617e-05
2.9608607292175293e-05
3.3274292945861816e-05
3.674626350402832e-05
3.966689109802246e-05
4.2065978050231934e-05
4.366040229797363e-05
4.4673681259155273e-05
4.5418739318847656e-05
4.626810550689697e-05
4.763901233673096e-05
5.015730857849121e-05
5.40614128112793e-05
5.9738755226135254e-05
6.698071956634521e-05
7.556378841400146e-05
8.477270603179932e-05
9.344518184661865e-05
0.00010062754154205322
0.0001051872968673706
0.00010612607002258301
0.00010350346565246582
9.769201278686523e-05
8.986890316009521e-05
8.143484592437744e-05
7.361173629760742e-05
6.726384162902832e-05
6.251037120819092e-05
5.911290645599365e-05
5.652010440826416e-05
5.409121513366699e-05
5.117058753967285e-05
4.760921001434326e-05
4.3258070945739746e-05
3.8430094718933105e-05
3.4049153327941895e-05
3.0875205993652344e-05
2.98917293548584e-05
3.14861536026001e-05
3.5822391510009766e-05
4.2304396629333496e-05
4.9501657485961914e-05
5.599856376647949e-05
5.988776683807373e-05
5.939602851867676e-05
5.345046520233154e-05
4.120171070098877e-05
2.288818359375e-05
-7.152557373046875e-07
-2.822279930114746e-05
-5.790591239929199e-05
-8.785724639892578e-05
0.00016772747039794922
0.00015468895435333252
0.00014162063598632812
0.0001287907361984253
0.00011612474918365479
0.00010381639003753662
9.191036224365234e-05
8.04513692855835e-05
6.969273090362549e-05
5.9604644775390625e-05
5.030632019042969e-05
4.172325134277344e-05
3.412365913391113e-05
2.7388334274291992e-05
2.162158489227295e-05
1.671910285949707e-05
1.2606382369995117e-05
9.372830390930176e-06
6.765127182006836e-06
4.902482032775879e-06
3.5315752029418945e-06
2.60770320892334e-06
2.0265579223632812e-06
1.7136335372924805e-06
1.6242265701293945e-06
1.6242265701293945e-06
1.7434358596801758e-06
1.9073486328125e-06
2.1904706954956055e-06
2.4884939193725586e-06
2.8908252716064453e-06
3.293156623840332e-06
3.904104232788086e-06
4.500150680541992e-06
5.21540641784668e-06
5.856156349182129e-06
6.467103958129883e-06
6.988644599914551e-06
7.3909759521484375e-06
7.510185241699219e-06
7.525086402893066e-06
7.3015689849853516e-06
7.092952728271484e-06
6.884336471557617e-06
6.839632987976074e-06
7.048249244689941e-06
7.674098014831543e-06
8.851289749145508e-06
1.0535120964050293e-05
1.2695789337158203e-05
1.5303492546081543e-05
1.811981201171875e-05
2.0906329154968262e-05
2.352893352508545e-05
2.5793910026550293e-05
2.7686357498168945e-05
2.937018871307373e-05
3.109872341156006e-05
3.3229589462280273e-05
3.625452518463135e-05
4.0650367736816406e-05
4.6581029891967773e-05
5.416572093963623e-05
6.32554292678833e-05
7.325410842895508e-05
8.340179920196533e-05
9.255111217498779e-05
9.937584400177002e-05
0.00010308623313903809
0.00010305643081665039
9.942054748535156e-05
9.325146675109863e-05
8.572638034820557e-05
7.830560207366943e-05
7.192790508270264e-05
6.714463233947754e-05
6.368756294250488e-05
6.121397018432617e-05
5.894899368286133e-05
5.6430697441101074e-05
5.315244197845459e-05
4.902482032775879e-05
4.419684410095215e-05
3.9204955101013184e-05
3.5002827644348145e-05
3.24249267578125e-05
3.217160701751709e-05
3.4689903259277344e-05
3.948807716369629e-05
4.576146602630615e-05
5.219876766204834e-05
5.6996941566467285e-05
5.857646465301514e-05
5.543231964111328e-05
4.6640634536743164e-05
3.185868263244629e-05
1.1578202247619629e-05
-1.3306736946105957e-05
-4.112720489501953e-05
-7.030367851257324e-05
0.0001601874828338623
0.00014664232730865479
0.00013330578804016113
0.00012014806270599365
0.00010737776756286621
9.500980377197266e-05
8.319318294525146e-05
7.195770740509033e-05
6.146728992462158e-05
5.170702934265137e-05
4.2811036109924316e-05
3.4675002098083496e-05
2.7477741241455078e-05
2.117455005645752e-05
1.5810132026672363e-05
1.1324882507324219e-05
7.584691047668457e-06
4.678964614868164e-06
2.384185791015625e-06
7.748603820800781e-07
-2.682209014892578e-07
-9.5367431640625e-07
-1.1771917343139648e-06
-1.1771917343139648e-06
-8.791685104370117e-07
-3.725290298461914e-07
2.384185791015625e-07
1.0132789611816406e-06
1.862645149230957e-06
2.8908252716064453e-06
4.0084123611450195e-06
5.185604095458984e-06
6.4373016357421875e-06
7.68899917602539e-06
8.851289749145508e-06
9.894371032714844e-06
1.0669231414794922e-05
1.1205673217773438e-05
1.1280179023742676e-05
1.0907649993896484e-05
1.0132789611816406e-05
8.910894393920898e-06
7.331371307373047e-06
5.543231964111328e-06
3.7550926208496094e-06
2.0712614059448242e-06
6.556510925292969e-07
-2.086162567138672e-07
-4.76837158203125e-07
-8.940696716308594e-08
1.0281801223754883e-06
2.6673078536987305e-06
4.813075065612793e-06
7.18235969543457e-06
9.581446647644043e-06
1.1935830116271973e-05
1.4200806617736816e-05
1.6704201698303223e-05
1.952052116394043e-05
2.3111701011657715e-05
2.779066562652588e-05
3.3915042877197266e-05
4.170835018157959e-05
5.103647708892822e-05
6.160140037536621e-05
7.271766662597656e-05
8.338689804077148e-05
9.235739707946777e-05
9.85562801361084e-05
0.00010116398334503174
0.00010004639625549316
9.578466415405273e-05
8.951127529144287e-05
8.273124694824219e-05
7.66068696975708e-05
7.177889347076416e-05
6.836652755737305e-05
6.590783596038818e-05
6.392598152160645e-05
6.173551082611084e-05
5.879998207092285e-05
5.492568016052246e-05
5.015730857849121e-05
4.48375940322876e-05
3.986060619354248e-05
3.604590892791748e-05
3.412365913391113e-05
3.4749507904052734e-05
3.7863850593566895e-05
4.285573959350586e-05
4.869699478149414e-05
5.3822994232177734e-05
5.672872066497803e-05
5.574524402618408e-05
4.978477954864502e-05
3.8310885429382324e-05
2.1159648895263672e-05
-8.195638656616211e-07
-2.6479363441467285e-05
-5.429983139038086e-05
0.00015047192573547363
0.00013649463653564453
0.00012284517288208008
0.00010961294174194336
9.681284427642822e-05
8.468329906463623e-05
7.311999797821045e-05
6.222724914550781e-05
5.213916301727295e-05
4.284083843231201e-05
3.439188003540039e-05
2.6911497116088867e-05
2.0250678062438965e-05
1.4513731002807617e-05
9.641051292419434e-06
5.587935447692871e-06
2.3990869522094727e-06
-7.450580596923828e-08
-1.8775463104248047e-06
-3.069639205932617e-06
-3.814697265625e-06
-4.023313522338867e-06
-3.859400749206543e-06
-3.4123659133911133e-06
-2.652406692504883e-06
-1.6093254089355469e-06
-4.172325134277344e-07
1.043081283569336e-06
2.652406692504883e-06
4.4405460357666016e-06
6.3925981521606445e-06
8.38935375213623e-06
1.0475516319274902e-05
1.245737075805664e-05
1.4334917068481445e-05
1.5944242477416992e-05
1.7136335372924805e-05
1.7896294593811035e-05
1.8030405044555664e-05
1.7523765563964844e-05
1.6286969184875488e-05
1.4394521713256836e-05
1.1876225471496582e-05
8.910894393920898e-06
5.5730342864990234e-06
2.2202730178833008e-06
-1.0728836059570312e-06
-3.993511199951172e-06
-6.303191184997559e-06
-7.88271427154541e-06
-8.672475814819336e-06
-8.538365364074707e-06
-7.62939453125e-06
-6.094574928283691e-06
-4.0978193283081055e-06
-1.6987323760986328e-06
9.08970832824707e-07
3.769993782043457e-06
7.137656211853027e-06
1.1116266250610352e-05
1.607835292816162e-05
2.2396445274353027e-05
3.0100345611572266e-05
3.9458274841308594e-05
5.0202012062072754e-05
6.183981895446777e-05
7.361173629760742e-05
8.435547351837158e-05
9.284913539886475e-05
9.799003601074219e-05
9.943544864654541e-05
9.73045825958252e-05
9.264051914215088e-05
8.678436279296875e-05
8.112192153930664e-05
7.644295692443848e-05
7.31050968170166e-05
7.079541683197021e-05
6.896257400512695e-05
6.70403242111206e-05
6.447732448577881e-05
6.085634231567383e-05
5.62816858291626e-05
5.093216896057129e-05
4.540383815765381e-05
4.0531158447265625e-05
3.72081995010376e-05
3.6075711250305176e-05
3.7416815757751465e-05
4.093348979949951e-05
4.583597183227539e-05
5.075335502624512e-05
5.429983139038086e-05
5.480647087097168e-05
5.117058753967285e-05
4.246830940246582e-05
2.8371810913085938e-05
9.253621101379395e-06
-1.4066696166992188e-05
-4.0158629417419434e-05
0.00013850629329681396
0.00012430548667907715
0.00011050701141357422
9.737908840179443e-05
8.480250835418701e-05
7.288157939910889e-05
6.175041198730469e-05
5.1394104957580566e-05
4.1857361793518066e-05
3.3214688301086426e-05
2.5525689125061035e-05
1.8611550331115723e-05
1.2680888175964355e-05
7.614493370056152e-06
3.3974647521972656e-06
-1.4901161193847656e-08
-2.5779008865356445e-06
-4.51505184173584e-06
-5.826354026794434e-06
-6.496906280517578e-06
-6.67572021484375e-06
-6.407499313354492e-06
-5.781650543212891e-06
-4.76837158203125e-06
-3.4123659133911133e-06
-1.773238182067871e-06
1.4901161193847656e-07
2.294778823852539e-06
4.708766937255859e-06
7.3909759521484375e-06
1.0251998901367188e-05
1.3187527656555176e-05
1.6123056411743164e-05
1.9088387489318848e-05
2.1785497665405273e-05
2.41696834564209e-05
2.6017427444458008e-05
2.720952033996582e-05
2.7671456336975098e-05
2.726912498474121e-05
2.5987625122070312e-05
2.3737549781799316e-05
2.06679105758667e-05
1.679360866546631e-05
1.2353062629699707e-05
7.554888725280762e-06
2.6226043701171875e-06
-2.1010637283325195e-06
-6.3925981521606445e-06
-1.0102987289428711e-05
-1.2874603271484375e-05
-1.4677643775939941e-05
-1.5437602996826172e-05
-1.5214085578918457e-05
-1.4081597328186035e-05
-1.220405101776123e-05
-9.760260581970215e-06
-6.735324859619141e-06
-3.1441450119018555e-06
1.1175870895385742e-06
6.243586540222168e-06
1.2487173080444336e-05
2.0071864128112793e-05
2.9161572456359863e-05
3.975629806518555e-05
5.148351192474365e-05
6.38812780380249e-05
7.583200931549072e-05
8.61436128616333e-05
9.366869926452637e-05
9.763240814208984e-05
9.788572788238525e-05
9.500980377197266e-05
9.046494960784912e-05
8.544325828552246e-05
8.106231689453125e-05
7.790327072143555e-05
7.572770118713379e-05
7.41034746170044e-05
7.2479248046875e-05
7.019937038421631e-05
6.698071956634521e-05
6.261467933654785e-05
5.729496479034424e-05
5.131959915161133e-05
4.570186138153076e-05
4.118680953979492e-05
3.853440284729004e-05
3.816187381744385e-05
4.009902477264404e-05
4.379451274871826e-05
4.805624485015869e-05
5.170702934265137e-05
5.3241848945617676e-05
5.131959915161133e-05
4.486739635467529e-05
3.3408403396606445e-05
1.6987323760986328e-05
-3.874301910400391e-06
-2.8073787689208984e-05
0.0001245439052581787
0.0001102834939956665
9.663403034210205e-05
8.36402177810669e-05
7.146596908569336e-05
6.00963830947876e-05
4.947185516357422e-05
3.981590270996094e-05
3.1054019927978516e-05
2.32011079788208e-05
1.6182661056518555e-05
1.017749309539795e-05
5.036592483520508e-06
8.046627044677734e-07
-2.6673078536987305e-06
-5.304813385009766e-06
-7.227063179016113e-06
-8.478760719299316e-06
-9.059906005859375e-06
-9.179115295410156e-06
-8.717179298400879e-06
-7.927417755126953e-06
-6.705522537231445e-06
-4.976987838745117e-06
-3.039836883544922e-06
-6.854534149169922e-07
1.9669532775878906e-06
4.947185516357422e-06
8.299946784973145e-06
1.1876225471496582e-05
1.5676021575927734e-05
1.9609928131103516e-05
2.3603439331054688e-05
2.752244472503662e-05
3.1128525733947754e-05
3.445148468017578e-05
3.7044286727905273e-05
3.8951635360717773e-05
3.9950013160705566e-05
3.9964914321899414e-05
3.886222839355469e-05
3.664195537567139e-05
3.333389759063721e-05
2.9012560844421387e-05
2.390146255493164e-05
1.8075108528137207e-05
1.195073127746582e-05
5.5730342864990234e-06
-6.258487701416016e-07
-6.273388862609863e-06
-1.1175870895385742e-05
-1.5079975128173828e-05
-1.7836689949035645e-05
-1.9282102584838867e-05
-1.958012580871582e-05
-1.8656253814697266e-05
-1.683831214904785e-05
-1.411139965057373e-05
-1.0609626770019531e-05
-6.332993507385254e-06
-1.1920928955078125e-06
4.887580871582031e-06
1.2129545211791992e-05
2.0682811737060547e-05
3.0800700187683105e-05
4.221498966217041e-05
5.4642558097839355e-05
6.724894046783447e-05
7.900595664978027e-05
8.845329284667969e-05
9.478628635406494e-05
9.737908840179443e-05
9.660422801971436e-05
9.34898853302002e-05
8.946657180786133e-05
8.559226989746094e-05
8.26120376586914e-05
8.065998554229736e-05
7.927417755126953e-05
7.796287536621094e-05
7.604062557220459e-05
7.311999797821045e-05
6.90072774887085e-05
6.374716758728027e-05
5.768239498138428e-05
5.1468610763549805e-05
4.5940279960632324e-05
4.194676876068115e-05
4.0024518966674805e-05
4.0397047996520996e-05
4.26173210144043e-05
4.602968692779541e-05
4.9367547035217285e-05
5.137920379638672e-05
5.0574541091918945e-05
4.5925378799438477e-05
3.670156002044678e-05
2.269446849822998e-05
4.231929779052734e-06
-1.7940998077392578e-05
0.00010886788368225098
9.47117805480957e-05
8.137524127960205e-05
6.887316703796387e-05
5.723536014556885e-05
4.649162292480469e-05
3.673136234283447e-05
2.7865171432495117e-05
1.9982457160949707e-05
1.3008713722229004e-05
7.018446922302246e-06
1.9222497940063477e-06
-2.2202730178833008e-06
-5.632638931274414e-06
-8.13603401184082e-06
-9.968876838684082e-06
-1.1086463928222656e-05
-1.1548399925231934e-05
-1.1429190635681152e-05
-1.0848045349121094e-05
-9.745359420776367e-06
-8.195638656616211e-06
-6.258487701416016e-06
-3.993511199951172e-06
-1.2516975402832031e-06
1.8775463104248047e-06
5.334615707397461e-06
9.208917617797852e-06
1.341104507446289e-05
1.8015503883361816e-05
2.2798776626586914e-05
2.777576446533203e-05
3.2782554626464844e-05
3.775954246520996e-05
4.236400127410889e-05
4.661083221435547e-05
5.009770393371582e-05
5.282461643218994e-05
5.456805229187012e-05
5.511939525604248e-05
5.4448843002319336e-05
5.2556395530700684e-05
4.933774471282959e-05
4.500150680541992e-05
3.9577484130859375e-05
3.318488597869873e-05
2.613663673400879e-05
1.862645149230957e-05
1.0982155799865723e-05
3.56137752532959e-06
-3.3527612686157227e-06
-9.28342342376709e-06
-1.4185905456542969e-05
-1.773238182067871e-05
-1.977384090423584e-05
-2.0369887351989746e-05
-1.9595026969909668e-05
-1.7583370208740234e-05
-1.4543533325195312e-05
-1.049041748046875e-05
-5.602836608886719e-06
1.6391277313232422e-07
6.9141387939453125e-06
1.4886260032653809e-05
2.4065375328063965e-05
3.4689903259277344e-05
4.6625733375549316e-05
5.930662155151367e-05
7.170438766479492e-05
8.285045623779297e-05
9.110569953918457e-05
9.603798389434814e-05
9.737908840179443e-05
9.597837924957275e-05
9.310245513916016e-05
8.991360664367676e-05
8.733570575714111e-05
8.568167686462402e-05
8.45789909362793e-05
8.353590965270996e-05
8.192658424377441e-05
7.936358451843262e-05
7.551908493041992e-05
7.040798664093018e-05
6.431341171264648e-05
5.765259265899658e-05
5.1334500312805176e-05
4.616379737854004e-05
4.278123378753662e-05
4.1604042053222656e-05
4.2438507080078125e-05
4.474818706512451e-05
4.750490188598633e-05
4.9486756324768066e-05
4.941225051879883e-05
4.6059489250183105e-05
3.863871097564697e-05
2.6747584342956543e-05
1.0445713996887207e-05
-9.715557098388672e-06
9.173154830932617e-05
7.799267768859863e-05
6.522238254547119e-05
5.334615707397461e-05
4.251301288604736e-05
3.266334533691406e-05
2.384185791015625e-05
1.6003847122192383e-05
9.134411811828613e-06
3.3229589462280273e-06
-1.6093254089355469e-06
-5.662441253662109e-06
-8.761882781982422e-06
-1.1116266250610352e-05
-1.2665987014770508e-05
-1.3560056686401367e-05
-1.3768672943115234e-05
-1.341104507446289e-05
-1.2516975402832031e-05
-1.1160969734191895e-05
-9.28342342376709e-06
-7.033348083496094e-06
-4.351139068603516e-06
-1.296401023864746e-06
2.175569534301758e-06
6.064772605895996e-06
1.0401010513305664e-05
1.5169382095336914e-05
2.0295381546020508e-05
2.5779008865356445e-05
3.151595592498779e-05
3.75211238861084e-05
4.35560941696167e-05
4.945695400238037e-05
5.505979061126709e-05
6.026029586791992e-05
6.468594074249268e-05
6.827712059020996e-05
7.075071334838867e-05
7.210671901702881e-05
7.203221321105957e-05
7.066130638122559e-05
6.790459156036377e-05
6.379187107086182e-05
5.85019588470459e-05
5.194544792175293e-05
4.45246696472168e-05
3.637373447418213e-05
2.771615982055664e-05
1.8909573554992676e-05
1.0386109352111816e-05
2.3990869522094727e-06
-4.5299530029296875e-06
-1.0192394256591797e-05
-1.4334917068481445e-05
-1.6763806343078613e-05
-1.7389655113220215e-05
-1.6555190086364746e-05
-1.4275312423706055e-05
-1.080334186553955e-05
-6.3478946685791016e-06
-1.0281801223754883e-06
5.036592483520508e-06
1.2040138244628906e-05
2.0116567611694336e-05
2.9593706130981445e-05
4.042685031890869e-05
5.245208740234375e-05
6.507337093353271e-05
7.696449756622314e-05
8.696317672729492e-05
9.386241436004639e-05
9.736418724060059e-05
9.782612323760986e-05
9.624660015106201e-05
9.396672248840332e-05
9.199976921081543e-05
9.064376354217529e-05
8.986890316009521e-05
8.915364742279053e-05
8.793175220489502e-05
8.572638034820557e-05
8.217990398406982e-05
7.72327184677124e-05
7.106363773345947e-05
6.413459777832031e-05
5.7190656661987305e-05