# vtk DataFile Version 3.0
2D PINN Solution
ASCII
DATASET STRUCTURED_GRID
DIMENSIONS 100 100 1
POINTS 10000 float
-1.0 -1.0 0.0
-0.9797979797979798 -1.0 0.0
-0.9595959595959596 -1.0 0.0
-0.9393939393939394 -1.0 0.0
-0.9191919191919192 -1.0 0.0
-0.898989898989899 -1.0 0.0
-0.8787878787878788 -1.0 0.0
-0.8585858585858586 -1.0 0.0
-0.8383838383838383 -1.0 0.0
-0.8181818181818181 -1.0 0.0
-0.797979797979798 -1.0 0.0
-0.7777777777777778 -1.0 0.0
-0.7575757575757576 -1.0 0.0
-0.7373737373737373 -1.0 0.0
-0.7171717171717171 -1.0 0.0
-0.696969696969697 -1.0 0.0
-0.6767676767676767 -1.0 0.0
-0.6565656565656566 -1.0 0.0
-0.6363636363636364 -1.0 0.0
-0.6161616161616161 -1.0 0.0
-0.5959595959595959 -1.0 0.0
-0.5757575757575757 -1.0 0.0
-0.5555555555555556 -1.0 0.0
-0.5353535353535352 -1.0 0.0
-0.5151515151515151 -1.0 0.0
-0.4949494949494949 -1.0 0.0
-0.4747474747474747 -1.0 0.0
-0.4545454545454545 -1.0 0.0
-0.43434343434343425 -1.0 0.0
-0.41414141414141414 -1.0 0.0
-0.3939393939393939 -1.0 0.0
-0.3737373737373737 -1.0 0.0
-0.3535353535353535 -1.0 0.0
-0.33333333333333326 -1.0 0.0
-0.31313131313131304 -1.0 0.0
-0.2929292929292928 -1.0 0.0
-0.2727272727272727 -1.0 0.0
-0.2525252525252525 -1.0 0.0
-0.23232323232323226 -1.0 0.0
-0.21212121212121204 -1.0 0.0
-0.19191919191919182 -1.0 0.0
-0.1717171717171716 -1.0 0.0
-0.1515151515151515 -1.0 0.0
-0.13131313131313127 -1.0 0.0
-0.11111111111111105 -1.0 0.0
-0.09090909090909083 -1.0 0.0
-0.07070707070707061 -1.0 0.0
-0.050505050505050386 -1.0 0.0
-0.030303030303030276 -1.0 0.0
-0.010101010101010055 -1.0 0.0
0.010101010101010166 -1.0 0.0
0.030303030303030498 -1.0 0.0
0.05050505050505061 -1.0 0.0
0.07070707070707072 -1.0 0.0
0.09090909090909105 -1.0 0.0
0.11111111111111116 -1.0 0.0
0.1313131313131315 -1.0 0.0
0.1515151515151516 -1.0 0.0
0.1717171717171717 -1.0 0.0
0.19191919191919204 -1.0 0.0
0.21212121212121215 -1.0 0.0
0.2323232323232325 -1.0 0.0
0.2525252525252526 -1.0 0.0
0.27272727272727293 -1.0 0.0
0.29292929292929304 -1.0 0.0
0.31313131313131315 -1.0 0.0
0.3333333333333335 -1.0 0.0
0.3535353535353536 -1.0 0.0
0.3737373737373739 -1.0 0.0
0.39393939393939403 -1.0 0.0
0.41414141414141437 -1.0 0.0
0.4343434343434345 -1.0 0.0
0.4545454545454546 -1.0 0.0
0.4747474747474749 -1.0 0.0
0.49494949494949503 -1.0 0.0
0.5151515151515154 -1.0 0.0
0.5353535353535355 -1.0 0.0
0.5555555555555556 -1.0 0.0
0.5757575757575759 -1.0 0.0
0.595959595959596 -1.0 0.0
0.6161616161616164 -1.0 0.0
0.6363636363636365 -1.0 0.0
0.6565656565656568 -1.0 0.0
0.6767676767676769 -1.0 0.0
0.696969696969697 -1.0 0.0
0.7171717171717173 -1.0 0.0
0.7373737373737375 -1.0 0.0
0.7575757575757578 -1.0 0.0
0.7777777777777779 -1.0 0.0
0.7979797979797982 -1.0 0.0
0.8181818181818183 -1.0 0.0
0.8383838383838385 -1.0 0.0
0.8585858585858588 -1.0 0.0
0.8787878787878789 -1.0 0.0
0.8989898989898992 -1.0 0.0
0.9191919191919193 -1.0 0.0
0.9393939393939394 -1.0 0.0
0.9595959595959598 -1.0 0.0
0.9797979797979799 -1.0 0.0
1.0 -1.0 0.0
-1.0 -0.9797979797979798 0.0
-0.9797979797979798 -0.9797979797979798 0.0
-0.9595959595959596 -0.9797979797979798 0.0
-0.9393939393939394 -0.9797979797979798 0.0
-0.9191919191919192 -0.9797979797979798 0.0
-0.898989898989899 -0.9797979797979798 0.0
-0.8787878787878788 -0.9797979797979798 0.0
-0.8585858585858586 -0.9797979797979798 0.0
-0.8383838383838383 -0.9797979797979798 0.0
-0.8181818181818181 -0.9797979797979798 0.0
-0.797979797979798 -0.9797979797979798 0.0
-0.7777777777777778 -0.9797979797979798 0.0
-0.7575757575757576 -0.9797979797979798 0.0
-0.7373737373737373 -0.9797979797979798 0.0
-0.7171717171717171 -0.9797979797979798 0.0
-0.696969696969697 -0.9797979797979798 0.0
-0.6767676767676767 -0.9797979797979798 0.0
-0.6565656565656566 -0.9797979797979798 0.0
-0.6363636363636364 -0.9797979797979798 0.0
-0.6161616161616161 -0.9797979797979798 0.0
-0.5959595959595959 -0.9797979797979798 0.0
-0.5757575757575757 -0.9797979797979798 0.0
-0.5555555555555556 -0.9797979797979798 0.0
-0.5353535353535352 -0.9797979797979798 0.0
-0.5151515151515151 -0.9797979797979798 0.0
-0.4949494949494949 -0.9797979797979798 0.0
-0.4747474747474747 -0.9797979797979798 0.0
-0.4545454545454545 -0.9797979797979798 0.0
-0.43434343434343425 -0.9797979797979798 0.0
-0.41414141414141414 -0.9797979797979798 0.0
-0.3939393939393939 -0.9797979797979798 0.0
-0.3737373737373737 -0.9797979797979798 0.0
-0.3535353535353535 -0.9797979797979798 0.0
-0.33333333333333326 -0.9797979797979798 0.0
-0.31313131313131304 -0.9797979797979798 0.0
-0.2929292929292928 -0.9797979797979798 0.0
-0.2727272727272727 -0.9797979797979798 0.0
-0.2525252525252525 -0.9797979797979798 0.0
-0.23232323232323226 -0.9797979797979798 0.0
-0.21212121212121204 -0.9797979797979798 0.0
-0.19191919191919182 -0.9797979797979798 0.0
-0.1717171717171716 -0.9797979797979798 0.0
-0.1515151515151515 -0.9797979797979798 0.0
-0.13131313131313127 -0.9797979797979798 0.0
-0.11111111111111105 -0.9797979797979798 0.0
-0.09090909090909083 -0.9797979797979798 0.0
-0.07070707070707061 -0.9797979797979798 0.0
-0.050505050505050386 -0.9797979797979798 0.0
-0.030303030303030276 -0.9797979797979798 0.0
-0.010101010101010055 -0.9797979797979798 0.0
0.010101010101010166 -0.9797979797979798 0.0
0.030303030303030498 -0.9797979797979798 0.0
0.05050505050505061 -0.9797979797979798 0.0
0.07070707070707072 -0.9797979797979798 0.0
0.09090909090909105 -0.9797979797979798 0.0
0.11111111111111116 -0.9797979797979798 0.0
0.1313131313131315 -0.9797979797979798 0.0
0.1515151515151516 -0.9797979797979798 0.0
0.1717171717171717 -0.9797979797979798 0.0
0.19191919191919204 -0.9797979797979798 0.0
0.21212121212121215 -0.9797979797979798 0.0
0.2323232323232325 -0.9797979797979798 0.0
0.2525252525252526 -0.9797979797979798 0.0
0.27272727272727293 -0.9797979797979798 0.0
0.29292929292929304 -0.9797979797979798 0.0
0.31313131313131315 -0.9797979797979798 0.0
0.3333333333333335 -0.9797979797979798 0.0
0.3535353535353536 -0.9797979797979798 0.0
0.3737373737373739 -0.9797979797979798 0.0
0.39393939393939403 -0.9797979797979798 0.0
0.41414141414141437 -0.9797979797979798 0.0
0.4343434343434345 -0.9797979797979798 0.0
0.4545454545454546 -0.9797979797979798 0.0
0.4747474747474749 -0.9797979797979798 0.0
0.49494949494949503 -0.9797979797979798 0.0
0.5151515151515154 -0.9797979797979798 0.0
0.5353535353535355 -0.9797979797979798 0.0
0.5555555555555556 -0.9797979797979798 0.0
0.5757575757575759 -0.9797979797979798 0.0
0.595959595959596 -0.9797979797979798 0.0
0.6161616161616164 -0.9797979797979798 0.0
0.6363636363636365 -0.9797979797979798 0.0
0.6565656565656568 -0.9797979797979798 0.0
0.6767676767676769 -0.9797979797979798 0.0
0.696969696969697 -0.9797979797979798 0.0
0.7171717171717173 -0.9797979797979798 0.0
0.7373737373737375 -0.9797979797979798 0.0
0.7575757575757578 -0.9797979797979798 0.0
0.7777777777777779 -0.9797979797979798 0.0
0.7979797979797982 -0.9797979797979798 0.0
0.8181818181818183 -0.9797979797979798 0.0
0.8383838383838385 -0.9797979797979798 0.0
0.8585858585858588 -0.9797979797979798 0.0
0.8787878787878789 -0.9797979797979798 0.0
0.8989898989898992 -0.9797979797979798 0.0
0.9191919191919193 -0.9797979797979798 0.0
0.9393939393939394 -0.9797979797979798 0.0
0.9595959595959598 -0.9797979797979798 0.0
0.9797979797979799 -0.9797979797979798 0.0
1.0 -0.9797979797979798 0.0
-1.0 -0.9595959595959596 0.0
-0.9797979797979798 -0.9595959595959596 0.0
-0.9595959595959596 -0.9595959595959596 0.0
-0.9393939393939394 -0.9595959595959596 0.0
-0.9191919191919192 -0.9595959595959596 0.0
-0.898989898989899 -0.9595959595959596 0.0
-0.8787878787878788 -0.9595959595959596 0.0
-0.8585858585858586 -0.9595959595959596 0.0
-0.8383838383838383 -0.9595959595959596 0.0
-0.8181818181818181 -0.9595959595959596 0.0
-0.797979797979798 -0.9595959595959596 0.0
-0.7777777777777778 -0.9595959595959596 0.0
-0.7575757575757576 -0.9595959595959596 0.0
-0.7373737373737373 -0.9595959595959596 0.0
-0.7171717171717171 -0.9595959595959596 0.0
-0.696969696969697 -0.9595959595959596 0.0
-0.6767676767676767 -0.9595959595959596 0.0
-0.6565656565656566 -0.9595959595959596 0.0
-0.6363636363636364 -0.9595959595959596 0.0
-0.6161616161616161 -0.9595959595959596 0.0
-0.5959595959595959 -0.9595959595959596 0.0
-0.5757575757575757 -0.9595959595959596 0.0
-0.5555555555555556 -0.9595959595959596 0.0
-0.5353535353535352 -0.9595959595959596 0.0
-0.5151515151515151 -0.9595959595959596 0.0
-0.4949494949494949 -0.9595959595959596 0.0
-0.4747474747474747 -0.9595959595959596 0.0
-0.4545454545454545 -0.9595959595959596 0.0
-0.43434343434343425 -0.9595959595959596 0.0
-0.41414141414141414 -0.9595959595959596 0.0
-0.3939393939393939 -0.9595959595959596 0.0
-0.3737373737373737 -0.9595959595959596 0.0
-0.3535353535353535 -0.9595959595959596 0.0
-0.33333333333333326 -0.9595959595959596 0.0
-0.31313131313131304 -0.9595959595959596 0.0
-0.2929292929292928 -0.9595959595959596 0.0
-0.2727272727272727 -0.9595959595959596 0.0
-0.2525252525252525 -0.9595959595959596 0.0
-0.23232323232323226 -0.9595959595959596 0.0
-0.21212121212121204 -0.9595959595959596 0.0
-0.19191919191919182 -0.9595959595959596 0.0
-0.1717171717171716 -0.9595959595959596 0.0
-0.1515151515151515 -0.9595959595959596 0.0
-0.13131313131313127 -0.9595959595959596 0.0
-0.11111111111111105 -0.9595959595959596 0.0
-0.09090909090909083 -0.9595959595959596 0.0
-0.07070707070707061 -0.9595959595959596 0.0
-0.050505050505050386 -0.9595959595959596 0.0
-0.030303030303030276 -0.9595959595959596 0.0
-0.010101010101010055 -0.9595959595959596 0.0
0.010101010101010166 -0.9595959595959596 0.0
0.030303030303030498 -0.9595959595959596 0.0
0.05050505050505061 -0.9595959595959596 0.0
0.07070707070707072 -0.9595959595959596 0.0
0.09090909090909105 -0.9595959595959596 0.0
0.11111111111111116 -0.9595959595959596 0.0
0.1313131313131315 -0.9595959595959596 0.0
0.1515151515151516 -0.9595959595959596 0.0
0.1717171717171717 -0.9595959595959596 0.0
0.19191919191919204 -0.9595959595959596 0.0
0.21212121212121215 -0.9595959595959596 0.0
[...]
POINT_DATA 10000
SCALARS u float 1
LOOKUP_TABLE default
-7.426738739013672e-05
-9.837746620178223e-05
-0.00012035667896270752
-0.00013998150825500488
-0.0001573115587234497
-0.0001728832721710205
-0.00018712878227233887
-0.00020028650760650635
-0.000212937593460083
-0.00022497773170471191
-0.00023655593395233154
-0.00024750828742980957
-0.00025767087936401367
-0.0002668648958206177
-0.00027470290660858154
-0.0002811551094055176
-0.00028599798679351807
-0.0002891719341278076
-0.00029055774211883545
-0.0002902597188949585
-0.0002882331609725952
-0.0002845078706741333
-0.0002793818712234497
-0.0002729147672653198
-0.00026544928550720215
-0.00025722384452819824
-0.0002485513687133789
-0.00023983418941497803
-0.00023131072521209717
-0.00022317469120025635
-0.00021566450595855713
-0.00020879507064819336
-0.00020235776901245117
-0.00019644200801849365
-0.0001907944679260254
-0.00018516182899475098
-0.00017948448657989502
-0.00017370283603668213
-0.00016763806343078613
-0.00016126036643981934
-0.00015440583229064941
-0.000147208571434021
-0.00013945996761322021
-0.00013117492198944092
-0.00012251734733581543
-0.00011333823204040527
-0.00010390579700469971
-9.427964687347412e-05
-8.466839790344238e-05
-7.525086402893066e-05
-6.614625453948975e-05
-5.7563185691833496e-05
-4.960596561431885e-05
-4.2304396629333496e-05
-3.5762786865234375e-05
-2.9921531677246094e-05
-2.4825334548950195e-05
-2.028048038482666e-05
-1.621246337890625e-05
-1.2621283531188965e-05
-9.372830390930176e-06
-6.407499313354492e-06
-3.5762786865234375e-06
-8.940696716308594e-07
1.773238182067871e-06
4.380941390991211e-06
7.0035457611083984e-06
9.655952453613281e-06
1.2412667274475098e-05
1.5228986740112305e-05
1.8030405044555664e-05
2.0891427993774414e-05
2.3767352104187012e-05
2.6687979698181152e-05
2.962350845336914e-05
3.2514333724975586e-05
3.5375356674194336e-05
3.819167613983154e-05
4.1037797927856445e-05
4.3720006942749023e-05
4.64022159576416e-05
4.9054622650146484e-05
5.155801773071289e-05
5.410611629486084e-05
5.6549906730651855e-05
5.8904290199279785e-05
6.122887134552002e-05
6.349384784698486e-05
6.563961505889893e-05
6.77257776260376e-05
6.966292858123779e-05
7.148087024688721e-05
7.322430610656738e-05
7.475912570953369e-05
7.607042789459229e-05
7.720291614532471e-05
7.812678813934326e-05
7.876753807067871e-05
7.918477058410645e-05
7.921457290649414e-05
-6.754696369171143e-05
-9.207427501678467e-05
-0.00011442601680755615
-0.0001344531774520874
-0.00015231966972351074
-0.0001685023307800293
-0.00018332898616790771
-0.00019744038581848145
-0.00021091103553771973
-0.00022402405738830566
-0.0002368241548538208
-0.00024902820587158203
-0.00026044249534606934
-0.0002707242965698242
-0.0002795904874801636
-0.00028680264949798584
-0.0002922266721725464
-0.0002957284450531006
-0.00029735267162323
-0.00029709935188293457
-0.00029508769512176514
-0.00029143691062927246
-0.0002862513065338135
-0.0002797245979309082
-0.00027205049991607666
-0.0002635270357131958
-0.0002544969320297241
-0.0002452433109283447
-0.0002361088991165161
-0.0002272874116897583
-0.0002190917730331421
-0.00021159648895263672
-0.0002046823501586914
-0.00019834935665130615
-0.00019246339797973633
-0.00018668174743652344
-0.00018095970153808594
-0.00017511844635009766
-0.00016896426677703857
-0.0001623779535293579
-0.0001554638147354126
-0.00014793872833251953
-0.00013990700244903564
-0.00013138353824615479
-0.00012227892875671387
-0.00011275708675384521
-0.00010298192501068115
-9.295344352722168e-05
-8.302927017211914e-05
-7.326900959014893e-05
-6.382167339324951e-05
-5.491077899932861e-05
-4.668533802032471e-05
-3.9264559745788574e-05
-3.254413604736328e-05
-2.656877040863037e-05
-2.135336399078369e-05
-1.6823410987854004e-05
-1.284480094909668e-05
-9.28342342376709e-06
-6.213784217834473e-06
-3.427267074584961e-06
-7.599592208862305e-07
1.6987323760986328e-06
4.06801700592041e-06
6.42240047454834e-06
8.746981620788574e-06
1.11311674118042e-05
1.3530254364013672e-05
1.6033649444580078e-05
1.8551945686340332e-05
2.1159648895263672e-05
2.3767352104187012e-05
2.6479363441467285e-05
2.9101967811584473e-05
3.1828880310058594e-05
3.4481287002563477e-05
3.714859485626221e-05
3.975629806518555e-05
4.239380359649658e-05
4.4986605644226074e-05
4.754960536956787e-05
5.0067901611328125e-05
5.257129669189453e-05
5.507469177246094e-05
5.748867988586426e-05
5.990266799926758e-05
6.233155727386475e-05
6.473064422607422e-05
6.701052188873291e-05
6.940960884094238e-05
7.160007953643799e-05
7.374584674835205e-05
7.571280002593994e-05
7.764995098114014e-05
7.942318916320801e-05
8.098781108856201e-05
8.238852024078369e-05
8.36104154586792e-05
8.45491886138916e-05
-6.67870044708252e-05
-9.128451347351074e-05
-0.0001134723424911499
-0.00013333559036254883
-0.00015100836753845215
-0.00016708672046661377
-0.00018192827701568604
-0.0001960843801498413
-0.00020985305309295654
-0.0002234131097793579
-0.00023671984672546387
-0.00024959444999694824
-0.00026175379753112793
-0.00027270615100860596
-0.0002822279930114746
-0.0002899765968322754
-0.00029577314853668213
-0.0002995431423187256
-0.00030128657817840576
-0.0003011971712112427
-0.0002993345260620117
-0.00029587745666503906
-0.0002908557653427124
-0.0002844780683517456
-0.0002769678831100464
-0.0002684742212295532
-0.00025935471057891846
-0.00024981796741485596
-0.0002402961254119873
-0.00023105740547180176
-0.00022238492965698242
-0.0002143383026123047
-0.00020703673362731934
-0.00020036101341247559
-0.00019413232803344727
-0.0001882612705230713
-0.000182420015335083
-0.00017648935317993164
-0.00017030537128448486
-0.00016370415687561035
-0.00015656650066375732
-0.00014886260032653809
-0.0001405477523803711
-0.00013172626495361328
-0.00012233853340148926
-0.00011247396469116211
-0.00010228157043457031
-9.194016456604004e-05
-8.158385753631592e-05
-7.142126560211182e-05
-6.170570850372314e-05
-5.2541494369506836e-05
-4.406273365020752e-05
-3.6403536796569824e-05
-2.9474496841430664e-05
-2.3424625396728516e-05
-1.8164515495300293e-05
-1.3574957847595215e-05
-9.611248970031738e-06
-6.258487701416016e-06
-3.2335519790649414e-06
-6.109476089477539e-07
1.6987323760986328e-06
3.948807716369629e-06
6.079673767089844e-06
8.061528205871582e-06
1.0132789611816406e-05
1.2233853340148926e-05
1.4379620552062988e-05
1.65402889251709e-05
1.8730759620666504e-05
2.110004425048828e-05
2.3439526557922363e-05
2.586841583251953e-05
2.8327107429504395e-05
3.084540367126465e-05
3.3408403396606445e-05
3.585219383239746e-05
3.832578659057617e-05
4.081428050994873e-05
4.3332576751708984e-05
4.5806169509887695e-05
4.826486110687256e-05
5.0708651542663574e-05
5.322694778442383e-05
5.568563938140869e-05
5.81592321395874e-05
6.07222318649292e-05
6.3285231590271e-05
6.577372550964355e-05
6.829202175140381e-05
7.081031799316406e-05
7.331371307373047e-05
7.56978988647461e-05
7.805228233337402e-05
8.031725883483887e-05
8.241832256317139e-05
8.445978164672852e-05
8.632242679595947e-05
8.80509614944458e-05
-7.072091102600098e-05
-9.478628635406494e-05
-0.00011645257472991943
-0.00013574957847595215
-0.00015285611152648926
-0.00016829371452331543
-0.00018259882926940918
-0.00019633769989013672
-0.00020976364612579346
-0.00022311508655548096
-0.00023637712001800537
-0.00024941563606262207
-0.00026179850101470947
-0.000273093581199646
-0.0002829432487487793
-0.0002910047769546509
-0.00029702484607696533
-0.0003010183572769165
-0.0003028959035873413
-0.00030297040939331055
-0.0003012716770172119
-0.00029799342155456543
-0.0002933293581008911
-0.0002873539924621582
-0.0002801865339279175
-0.0002720057964324951
-0.00026308000087738037
-0.00025366246700286865
-0.00024402141571044922
-0.00023452937602996826
-0.0002254396677017212
-0.0002170950174331665
-0.0002094358205795288
-0.00020241737365722656
-0.00019596517086029053
-0.00018991529941558838
-0.000183984637260437
-0.00017805397510528564
-0.00017176568508148193
-0.00016510486602783203
-0.00015789270401000977
-0.0001500248908996582
-0.00014153122901916504
-0.00013239681720733643
-0.0001226961612701416
-0.00011241436004638672
-0.00010193884372711182
-9.12398099899292e-05
-8.049607276916504e-05
-7.005035877227783e-05
-5.988776683807373e-05
-5.041062831878662e-05
-4.169344902038574e-05
-3.376603126525879e-05
-2.6717782020568848e-05
-2.0563602447509766e-05
-1.5184283256530762e-05
-1.0609626770019531e-05
-6.765127182006836e-06
-3.4570693969726562e-06
-6.854534149169922e-07
1.7136335372924805e-06
3.859400749206543e-06
5.781650543212891e-06
7.644295692443848e-06
9.357929229736328e-06
1.1101365089416504e-05
1.2949109077453613e-05
1.475214958190918e-05
1.6689300537109375e-05
1.868605613708496e-05
2.078711986541748e-05
2.2917985916137695e-05
2.51084566116333e-05
2.7418136596679688e-05
2.9742717742919922e-05
3.21120023727417e-05
3.4436583518981934e-05
3.680586814880371e-05
3.9190053939819336e-05
4.157423973083496e-05
4.400312900543213e-05
4.635751247406006e-05
4.8801302909851074e-05
5.123019218444824e-05
5.370378494262695e-05
5.62518835067749e-05
5.88148832321167e-05
6.140768527984619e-05
6.407499313354492e-05
6.67572021484375e-05
6.948411464691162e-05
7.21663236618042e-05
7.486343383789062e-05
7.75754451751709e-05
8.018314838409424e-05
8.277595043182373e-05
8.521974086761475e-05
8.761882781982422e-05
8.991360664367676e-05
-7.815659046173096e-05
-0.00010146200656890869
-0.00012236833572387695
-0.0001408308744430542
-0.00015707314014434814
-0.0001716315746307373
-0.00018496811389923096
-0.00019784271717071533
-0.00021047890186309814
-0.00022320449352264404
-0.00023600459098815918
-0.0002486705780029297
-0.0002608746290206909
-0.0002721846103668213
-0.0002820640802383423
-0.00029030442237854004
-0.0002964884042739868
-0.0003005415201187134
-0.0003025829792022705
-0.0003028362989425659
-0.00030131638050079346
-0.00029838085174560547
-0.0002940744161605835
-0.0002885758876800537
-0.00028187036514282227
-0.0002742260694503784
-0.000265657901763916
-0.00025656819343566895
-0.000247076153755188
-0.00023755431175231934
-0.00022844970226287842
-0.00021977722644805908
-0.00021180510520935059
-0.00020456314086914062
-0.00019788742065429688
-0.0001917332410812378
-0.00018571317195892334
-0.00017972290515899658
-0.00017344951629638672
-0.00016672909259796143
-0.00015941262245178223
-0.00015151500701904297
-0.00014278292655944824
-0.00013339519500732422
-0.0001234114170074463
-0.000112876296043396
-0.00010196864604949951
-9.086728096008301e-05
-7.981061935424805e-05
-6.89774751663208e-05
-5.8531761169433594e-05
-4.875659942626953e-05
-3.9696693420410156e-05
-3.153085708618164e-05
-2.4303793907165527e-05
-1.8015503883361816e-05
-1.265108585357666e-05
-8.106231689453125e-06
-4.246830940246582e-06
-1.1473894119262695e-06
1.4901161193847656e-06
3.6656856536865234e-06
5.587935447692871e-06
7.256865501403809e-06
8.83638858795166e-06
1.0251998901367188e-05
1.1712312698364258e-05
1.3247132301330566e-05
1.4796853065490723e-05
1.6480684280395508e-05
1.8268823623657227e-05
2.0116567611694336e-05
2.2158026695251465e-05
2.4184584617614746e-05
2.6345252990722656e-05
2.847611904144287e-05
3.071129322052002e-05
3.299117088317871e-05
3.522634506225586e-05
3.7536025047302246e-05
3.9771199226379395e-05
4.214048385620117e-05
4.4465065002441406e-05
4.6834349632263184e-05
4.9248337745666504e-05
5.170702934265137e-05
5.422532558441162e-05
5.6743621826171875e-05
5.942583084106445e-05
6.210803985595703e-05
6.490945816040039e-05
6.778538227081299e-05
7.061660289764404e-05
7.34478235244751e-05
7.642805576324463e-05
7.930397987365723e-05
8.215010166168213e-05
8.502602577209473e-05
8.778274059295654e-05
9.046494960784912e-05
-8.803606033325195e-05
-0.00011038780212402344
-0.000130385160446167
-0.00014775991439819336
-0.00016288459300994873
-0.00017637014389038086
-0.00018866360187530518
-0.00020028650760650635
-0.00021189451217651367
-0.00022359192371368408
-0.00023552775382995605
-0.0002474784851074219
-0.0002592802047729492
-0.0002702176570892334
-0.00028002262115478516
-0.0002881288528442383
-0.000294417142868042
-0.0002986043691635132
-0.0003007948398590088
-0.00030115246772766113
-0.0002999305725097656
-0.00029730796813964844
-0.00029346346855163574
-0.0002883821725845337
-0.00028228759765625
-0.0002752244472503662
-0.0002672821283340454
-0.0002585947513580322
-0.0002494305372238159
-0.00024011731147766113
-0.00023099780082702637
-0.00022237002849578857
-0.000214308500289917
-0.000206872820854187
-0.00020010769367218018
-0.00019378960132598877
-0.00018772482872009277
-0.00018171966075897217
-0.00017543137073516846
-0.00016865134239196777
-0.00016131997108459473
-0.0001532435417175293
-0.00014437735080718994
-0.0001348555088043213
-0.0001246333122253418
-0.00011375546455383301
-0.00010250508785247803
-9.101629257202148e-05
-7.957220077514648e-05
-6.83218240737915e-05
-5.7578086853027344e-05
-4.7460198402404785e-05
-3.819167613983154e-05
-2.9772520065307617e-05
-2.2351741790771484e-05
-1.58846378326416e-05
-1.0505318641662598e-05
-5.9604644775390625e-06
-2.2351741790771484e-06
8.046627044677734e-07
3.2335519790649414e-06
5.200505256652832e-06
6.8247318267822266e-06
8.180737495422363e-06
9.47713851928711e-06
1.0669231414794922e-05
1.1906027793884277e-05
1.3172626495361328e-05
1.4528632164001465e-05
1.5974044799804688e-05
1.7583370208740234e-05
1.9297003746032715e-05
2.1129846572875977e-05
2.3066997528076172e-05
2.5063753128051758e-05
2.7194619178771973e-05
2.9325485229492188e-05
3.151595592498779e-05
3.36766242980957e-05
3.594160079956055e-05
3.8176774978637695e-05
4.044175148010254e-05
4.267692565917969e-05
4.500150680541992e-05
4.73707914352417e-05
4.971027374267578e-05
5.2168965339660645e-05
5.4776668548583984e-05
5.742907524108887e-05
6.014108657836914e-05
6.29425048828125e-05
6.584823131561279e-05
6.879866123199463e-05
7.18533992767334e-05
7.487833499908447e-05
7.794797420501709e-05
8.101761341094971e-05
8.407235145568848e-05
8.71419906616211e-05
9.009242057800293e-05
-9.937584400177002e-05
-0.00012072920799255371
-0.00013959407806396484
-0.00015589594841003418
-0.00016991794109344482
-0.00018215179443359375
-0.00019317865371704102
-0.00020363926887512207
-0.00021386146545410156
-0.0002243518829345703
-0.00023514032363891602
-0.0002461373805999756
-0.0002571195363998413
-0.00026758015155792236
-0.00027695298194885254
-0.0002849698066711426
-0.0002911984920501709
-0.00029546022415161133
-0.0002978593111038208
-0.0002984553575515747
-0.0002974867820739746
-0.0002951622009277344
-0.00029174983501434326
-0.0002872645854949951
-0.00028173625469207764
-0.0002753138542175293
-0.00026792287826538086
-0.00025984644889831543
-0.0002512037754058838
-0.0002422928810119629
-0.00023339688777923584
-0.00022482872009277344
-0.0002167820930480957
-0.00020934641361236572
-0.0002024918794631958
-0.00019621849060058594
-0.0001900792121887207
-0.00018402934074401855
-0.00017777085304260254
-0.0001710057258605957
-0.00016359984874725342
-0.00015547871589660645
-0.00014650821685791016
-0.00013674795627593994
-0.00012624263763427734
-0.00011511147022247314
-0.00010356307029724121
-9.173154830932617e-05
-7.985532283782959e-05
-6.827712059020996e-05
-5.716085433959961e-05
-4.6640634536743164e-05
-3.7088990211486816e-05
-2.8461217880249023e-05
-2.0876526832580566e-05
-1.430511474609375e-05
-8.83638858795166e-06
-4.351139068603516e-06
-7.003545761108398e-07
2.175569534301758e-06
4.410743713378906e-06
6.139278411865234e-06
7.554888725280762e-06
8.627772331237793e-06
9.641051292419434e-06
1.0639429092407227e-05
1.1622905731201172e-05
1.265108585357666e-05
1.3828277587890625e-05
1.5124678611755371e-05
1.659989356994629e-05
1.8194317817687988e-05
1.996755599975586e-05
2.180039882659912e-05
2.3812055587768555e-05
2.5838613510131836e-05
2.8014183044433594e-05
3.014504909515381e-05
3.2275915145874023e-05
3.4481287002563477e-05
3.668665885925293e-05
3.886222839355469e-05
4.114210605621338e-05
4.334747791290283e-05
4.5686960220336914e-05
4.8041343688964844e-05
5.041062831878662e-05
5.297362804412842e-05
5.5536627769470215e-05
5.8263540267944336e-05
6.105005741119385e-05
6.395578384399414e-05
6.698071956634521e-05
7.006525993347168e-05
7.314980030059814e-05
7.635354995727539e-05
7.954239845275879e-05
8.274614810943604e-05
8.596479892730713e-05
8.915364742279053e-05
-0.00011163949966430664
-0.00013180077075958252
-0.0001494884490966797
-0.00016464293003082275
-0.00017751753330230713
-0.00018849968910217285
-0.00019831955432891846
-0.00020736455917358398
-0.00021632015705108643
-0.00022542476654052734
-0.000234946608543396
-0.00024472177028656006
-0.00025475025177001953
-0.0002643465995788574
-0.0002733469009399414
-0.0002810657024383545
-0.0002871900796890259
-0.0002915412187576294
-0.00029408931732177734
-0.0002949237823486328
-0.0002942979335784912
-0.00029237568378448486
-0.00028936564922332764
-0.0002853572368621826
-0.0002803802490234375
-0.00027458369731903076
-0.00026792287826538086
-0.0002604275941848755
-0.00025241076946258545
-0.00024402141571044922
-0.00023549795150756836
-0.00022719800472259521
-0.0002193152904510498
-0.00021193921566009521
-0.00020518898963928223
-0.00019882619380950928
-0.00019274652004241943
-0.00018671154975891113
-0.0001804828643798828
-0.00017370283603668213
-0.00016635656356811523
-0.00015816092491149902
-0.0001491159200668335
-0.00013916194438934326
-0.00012849271297454834
-0.00011703372001647949
-0.00010515749454498291
-9.298324584960938e-05
-8.079409599304199e-05
-6.882846355438232e-05
-5.7324767112731934e-05
-4.652142524719238e-05
-3.661215305328369e-05
-2.7686357498168945e-05
-1.996755599975586e-05
-1.3366341590881348e-05
-7.763504981994629e-06
-3.293156623840332e-06
2.682209014892578e-07
2.9802322387695312e-06
5.0514936447143555e-06
6.5267086029052734e-06
7.68899917602539e-06
8.553266525268555e-06
9.34302806854248e-06
1.004338264465332e-05
1.0833144187927246e-05
1.1727213859558105e-05
1.2740492820739746e-05
1.3962388038635254e-05
1.5303492546081543e-05
1.6883015632629395e-05
1.862645149230957e-05
2.0503997802734375e-05
2.2470951080322266e-05
2.4572014808654785e-05
2.6702880859375e-05
2.8893351554870605e-05
3.102421760559082e-05
3.325939178466797e-05
3.5509467124938965e-05
3.765523433685303e-05
3.984570503234863e-05
4.209578037261963e-05
4.433095455169678e-05
4.661083221435547e-05
4.89652156829834e-05
5.143880844116211e-05
5.398690700531006e-05
5.665421485900879e-05
5.939602851867676e-05
6.225705146789551e-05
6.526708602905273e-05
6.833672523498535e-05
7.149577140808105e-05
7.4729323387146e-05
7.799267768859863e-05
8.130073547363281e-05
8.456408977508545e-05
8.790194988250732e-05
-0.00012421607971191406
-0.0001431107521057129
-0.0001596212387084961
-0.0001736283302307129
-0.00018531084060668945
-0.00019519031047821045
-0.00020375847816467285
-0.00021150708198547363
-0.0002190619707107544
-0.0002267211675643921
-0.00023484230041503906
-0.00024341046810150146
-0.0002522468566894531
-0.0002609938383102417
-0.00026932358741760254
-0.0002766549587249756
-0.00028267502784729004
-0.0002870112657546997
-0.0002897679805755615
-0.0002909153699874878
-0.00029061734676361084
-0.0002891123294830322
-0.00028648972511291504
-0.00028298795223236084
-0.0002786219120025635
-0.0002733767032623291
-0.0002674013376235962
-0.0002605617046356201
-0.0002531707286834717
-0.00024534761905670166
-0.00023734569549560547
-0.00022941827774047852
-0.0002218186855316162
-0.00021466612815856934
-0.00020802021026611328
-0.00020179152488708496
-0.0001957714557647705
-0.00018981099128723145
-0.00018359720706939697
-0.00017696619033813477
-0.00016956031322479248
-0.00016136467456817627
-0.0001522153615951538
-0.00014218688011169434
-0.00013124942779541016
-0.00011962652206420898
-0.00010737776756286621
-9.492039680480957e-05
-8.237361907958984e-05
-6.999075412750244e-05
-5.811452865600586e-05
-4.696846008300781e-05
-3.6776065826416016e-05
-2.7641654014587402e-05
-1.9684433937072754e-05
-1.2889504432678223e-05
-7.3015689849853516e-06
-2.8461217880249023e-06
5.513429641723633e-07
3.1888484954833984e-06
5.036592483520508e-06
6.3478946685791016e-06
7.286667823791504e-06
7.972121238708496e-06
8.493661880493164e-06