# vtk DataFile Version 3.0
2D PINN Solution
ASCII
DATASET STRUCTURED_GRID
DIMENSIONS 100 100 1
POINTS 10000 float
-1.0 -1.0 0.0
-0.9797979797979798 -1.0 0.0
-0.9595959595959596 -1.0 0.0
-0.9393939393939394 -1.0 0.0
-0.9191919191919192 -1.0 0.0
-0.898989898989899 -1.0 0.0
-0.8787878787878788 -1.0 0.0
-0.8585858585858586 -1.0 0.0
-0.8383838383838383 -1.0 0.0
-0.8181818181818181 -1.0 0.0
-0.797979797979798 -1.0 0.0
-0.7777777777777778 -1.0 0.0
-0.7575757575757576 -1.0 0.0
-0.7373737373737373 -1.0 0.0
-0.7171717171717171 -1.0 0.0
-0.696969696969697 -1.0 0.0
-0.6767676767676767 -1.0 0.0
-0.6565656565656566 -1.0 0.0
-0.6363636363636364 -1.0 0.0
-0.6161616161616161 -1.0 0.0
-0.5959595959595959 -1.0 0.0
-0.5757575757575757 -1.0 0.0
-0.5555555555555556 -1.0 0.0
-0.5353535353535352 -1.0 0.0
-0.5151515151515151 -1.0 0.0
-0.4949494949494949 -1.0 0.0
-0.4747474747474747 -1.0 0.0
-0.4545454545454545 -1.0 0.0
-0.43434343434343425 -1.0 0.0
-0.41414141414141414 -1.0 0.0
-0.3939393939393939 -1.0 0.0
-0.3737373737373737 -1.0 0.0
-0.3535353535353535 -1.0 0.0
-0.33333333333333326 -1.0 0.0
-0.31313131313131304 -1.0 0.0
-0.2929292929292928 -1.0 0.0
-0.2727272727272727 -1.0 0.0
-0.2525252525252525 -1.0 0.0
-0.23232323232323226 -1.0 0.0
-0.21212121212121204 -1.0 0.0
-0.19191919191919182 -1.0 0.0
-0.1717171717171716 -1.0 0.0
-0.1515151515151515 -1.0 0.0
-0.13131313131313127 -1.0 0.0
-0.11111111111111105 -1.0 0.0
-0.09090909090909083 -1.0 0.0
-0.07070707070707061 -1.0 0.0
-0.050505050505050386 -1.0 0.0
-0.030303030303030276 -1.0 0.0
-0.010101010101010055 -1.0 0.0
0.010101010101010166 -1.0 0.0
0.030303030303030498 -1.0 0.0
0.05050505050505061 -1.0 0.0
0.07070707070707072 -1.0 0.0
0.09090909090909105 -1.0 0.0
0.11111111111111116 -1.0 0.0
0.1313131313131315 -1.0 0.0
0.1515151515151516 -1.0 0.0
0.1717171717171717 -1.0 0.0
0.19191919191919204 -1.0 0.0
0.21212121212121215 -1.0 0.0
0.2323232323232325 -1.0 0.0
0.2525252525252526 -1.0 0.0
0.27272727272727293 -1.0 0.0
0.29292929292929304 -1.0 0.0
0.31313131313131315 -1.0 0.0
0.3333333333333335 -1.0 0.0
0.3535353535353536 -1.0 0.0
0.3737373737373739 -1.0 0.0
0.39393939393939403 -1.0 0.0
0.41414141414141437 -1.0 0.0
0.4343434343434345 -1.0 0.0
0.4545454545454546 -1.0 0.0
0.4747474747474749 -1.0 0.0
0.49494949494949503 -1.0 0.0
0.5151515151515154 -1.0 0.0
0.5353535353535355 -1.0 0.0
0.5555555555555556 -1.0 0.0
0.5757575757575759 -1.0 0.0
0.595959595959596 -1.0 0.0
0.6161616161616164 -1.0 0.0
0.6363636363636365 -1.0 0.0
0.6565656565656568 -1.0 0.0
0.6767676767676769 -1.0 0.0
0.696969696969697 -1.0 0.0
0.7171717171717173 -1.0 0.0
0.7373737373737375 -1.0 0.0
0.7575757575757578 -1.0 0.0
0.7777777777777779 -1.0 0.0
0.7979797979797982 -1.0 0.0
0.8181818181818183 -1.0 0.0
0.8383838383838385 -1.0 0.0
0.8585858585858588 -1.0 0.0
0.8787878787878789 -1.0 0.0
0.8989898989898992 -1.0 0.0
0.9191919191919193 -1.0 0.0
0.9393939393939394 -1.0 0.0
0.9595959595959598 -1.0 0.0
0.9797979797979799 -1.0 0.0
1.0 -1.0 0.0
-1.0 -0.9797979797979798 0.0
-0.9797979797979798 -0.9797979797979798 0.0
-0.9595959595959596 -0.9797979797979798 0.0
-0.9393939393939394 -0.9797979797979798 0.0
-0.9191919191919192 -0.9797979797979798 0.0
-0.898989898989899 -0.9797979797979798 0.0
-0.8787878787878788 -0.9797979797979798 0.0
-0.8585858585858586 -0.9797979797979798 0.0
-0.8383838383838383 -0.9797979797979798 0.0
-0.8181818181818181 -0.9797979797979798 0.0
-0.797979797979798 -0.9797979797979798 0.0
-0.7777777777777778 -0.9797979797979798 0.0
-0.7575757575757576 -0.9797979797979798 0.0
-0.7373737373737373 -0.9797979797979798 0.0
-0.7171717171717171 -0.9797979797979798 0.0
-0.696969696969697 -0.9797979797979798 0.0
-0.6767676767676767 -0.9797979797979798 0.0
-0.6565656565656566 -0.9797979797979798 0.0
-0.6363636363636364 -0.9797979797979798 0.0
-0.6161616161616161 -0.9797979797979798 0.0
-0.5959595959595959 -0.9797979797979798 0.0
-0.5757575757575757 -0.9797979797979798 0.0
-0.5555555555555556 -0.9797979797979798 0.0
-0.5353535353535352 -0.9797979797979798 0.0
-0.5151515151515151 -0.9797979797979798 0.0
-0.4949494949494949 -0.9797979797979798 0.0
-0.4747474747474747 -0.9797979797979798 0.0
-0.4545454545454545 -0.9797979797979798 0.0
-0.43434343434343425 -0.9797979797979798 0.0
-0.41414141414141414 -0.9797979797979798 0.0
-0.3939393939393939 -0.9797979797979798 0.0
-0.3737373737373737 -0.9797979797979798 0.0
-0.3535353535353535 -0.9797979797979798 0.0
-0.33333333333333326 -0.9797979797979798 0.0
-0.31313131313131304 -0.9797979797979798 0.0
-0.2929292929292928 -0.9797979797979798 0.0
-0.2727272727272727 -0.9797979797979798 0.0
-0.2525252525252525 -0.9797979797979798 0.0
-0.23232323232323226 -0.9797979797979798 0.0
-0.21212121212121204 -0.9797979797979798 0.0
-0.19191919191919182 -0.9797979797979798 0.0
-0.1717171717171716 -0.9797979797979798 0.0
-0.1515151515151515 -0.9797979797979798 0.0
-0.13131313131313127 -0.9797979797979798 0.0
-0.11111111111111105 -0.9797979797979798 0.0
-0.09090909090909083 -0.9797979797979798 0.0
-0.07070707070707061 -0.9797979797979798 0.0
-0.050505050505050386 -0.9797979797979798 0.0
-0.030303030303030276 -0.9797979797979798 0.0
-0.010101010101010055 -0.9797979797979798 0.0
0.010101010101010166 -0.9797979797979798 0.0
0.030303030303030498 -0.9797979797979798 0.0
0.05050505050505061 -0.9797979797979798 0.0
0.07070707070707072 -0.9797979797979798 0.0
0.09090909090909105 -0.9797979797979798 0.0
0.11111111111111116 -0.9797979797979798 0.0
0.1313131313131315 -0.9797979797979798 0.0
0.1515151515151516 -0.9797979797979798 0.0
0.1717171717171717 -0.9797979797979798 0.0
0.19191919191919204 -0.9797979797979798 0.0
0.21212121212121215 -0.9797979797979798 0.0
0.2323232323232325 -0.9797979797979798 0.0
0.2525252525252526 -0.9797979797979798 0.0
0.27272727272727293 -0.9797979797979798 0.0
0.29292929292929304 -0.9797979797979798 0.0
0.31313131313131315 -0.9797979797979798 0.0
0.3333333333333335 -0.9797979797979798 0.0
0.3535353535353536 -0.9797979797979798 0.0
0.3737373737373739 -0.9797979797979798 0.0
0.39393939393939403 -0.9797979797979798 0.0
0.41414141414141437 -0.9797979797979798 0.0
0.4343434343434345 -0.9797979797979798 0.0
0.4545454545454546 -0.9797979797979798 0.0
0.4747474747474749 -0.9797979797979798 0.0
0.49494949494949503 -0.9797979797979798 0.0
0.5151515151515154 -0.9797979797979798 0.0
0.5353535353535355 -0.9797979797979798 0.0
0.5555555555555556 -0.9797979797979798 0.0
0.5757575757575759 -0.9797979797979798 0.0
0.595959595959596 -0.9797979797979798 0.0
0.6161616161616164 -0.9797979797979798 0.0
0.6363636363636365 -0.9797979797979798 0.0
0.6565656565656568 -0.9797979797979798 0.0
0.6767676767676769 -0.9797979797979798 0.0
0.696969696969697 -0.9797979797979798 0.0
0.7171717171717173 -0.9797979797979798 0.0
0.7373737373737375 -0.9797979797979798 0.0
0.7575757575757578 -0.9797979797979798 0.0
0.7777777777777779 -0.9797979797979798 0.0
0.7979797979797982 -0.9797979797979798 0.0
0.8181818181818183 -0.9797979797979798 0.0
0.8383838383838385 -0.9797979797979798 0.0
0.8585858585858588 -0.9797979797979798 0.0
0.8787878787878789 -0.9797979797979798 0.0
0.8989898989898992 -0.9797979797979798 0.0
0.9191919191919193 -0.9797979797979798 0.0
0.9393939393939394 -0.9797979797979798 0.0
0.9595959595959598 -0.9797979797979798 0.0
0.9797979797979799 -0.9797979797979798 0.0
1.0 -0.9797979797979798 0.0
-1.0 -0.9595959595959596 0.0
-0.9797979797979798 -0.9595959595959596 0.0
-0.9595959595959596 -0.9595959595959596 0.0
-0.9393939393939394 -0.9595959595959596 0.0
-0.9191919191919192 -0.9595959595959596 0.0
-0.898989898989899 -0.9595959595959596 0.0
-0.8787878787878788 -0.9595959595959596 0.0
-0.8585858585858586 -0.9595959595959596 0.0
-0.8383838383838383 -0.9595959595959596 0.0
-0.8181818181818181 -0.9595959595959596 0.0
-0.797979797979798 -0.9595959595959596 0.0
-0.7777777777777778 -0.9595959595959596 0.0
-0.7575757575757576 -0.9595959595959596 0.0
-0.7373737373737373 -0.9595959595959596 0.0
-0.7171717171717171 -0.9595959595959596 0.0
-0.696969696969697 -0.9595959595959596 0.0
-0.6767676767676767 -0.9595959595959596 0.0
-0.6565656565656566 -0.9595959595959596 0.0
-0.6363636363636364 -0.9595959595959596 0.0
-0.6161616161616161 -0.9595959595959596 0.0
-0.5959595959595959 -0.9595959595959596 0.0
-0.5757575757575757 -0.9595959595959596 0.0
-0.5555555555555556 -0.9595959595959596 0.0
-0.5353535353535352 -0.9595959595959596 0.0
-0.5151515151515151 -0.9595959595959596 0.0
-0.4949494949494949 -0.9595959595959596 0.0
-0.4747474747474747 -0.9595959595959596 0.0
-0.4545454545454545 -0.9595959595959596 0.0
-0.43434343434343425 -0.9595959595959596 0.0
-0.41414141414141414 -0.9595959595959596 0.0
-0.3939393939393939 -0.9595959595959596 0.0
-0.3737373737373737 -0.9595959595959596 0.0
-0.3535353535353535 -0.9595959595959596 0.0
-0.33333333333333326 -0.9595959595959596 0.0
-0.31313131313131304 -0.9595959595959596 0.0
-0.2929292929292928 -0.9595959595959596 0.0
-0.2727272727272727 -0.9595959595959596 0.0
-0.2525252525252525 -0.9595959595959596 0.0
-0.23232323232323226 -0.9595959595959596 0.0
-0.21212121212121204 -0.9595959595959596 0.0
-0.19191919191919182 -0.9595959595959596 0.0
-0.1717171717171716 -0.9595959595959596 0.0
-0.1515151515151515 -0.9595959595959596 0.0
-0.13131313131313127 -0.9595959595959596 0.0
-0.11111111111111105 -0.9595959595959596 0.0
-0.09090909090909083 -0.9595959595959596 0.0
-0.07070707070707061 -0.9595959595959596 0.0
-0.050505050505050386 -0.9595959595959596 0.0
-0.030303030303030276 -0.9595959595959596 0.0
-0.010101010101010055 -0.9595959595959596 0.0
0.010101010101010166 -0.9595959595959596 0.0
0.030303030303030498 -0.9595959595959596 0.0
0.05050505050505061 -0.9595959595959596 0.0
0.07070707070707072 -0.9595959595959596 0.0
0.09090909090909105 -0.9595959595959596 0.0
0.11111111111111116 -0.9595959595959596 0.0
0.1313131313131315 -0.9595959595959596 0.0
0.1515151515151516 -0.9595959595959596 0.0
0.1717171717171717 -0.9595959595959596 0.0
0.19191919191919204 -0.9595959595959596 0.0
0.21212121212121215 -0.9595959595959596 0.0
[...]
POINT_DATA 10000
SCALARS u float 1
LOOKUP_TABLE default
-8.463859558105469e-05
-0.00010031461715698242
-0.00011461973190307617
-0.0001274198293685913
-0.00013890862464904785
-0.0001494884490966797
-0.00015941262245178223
-0.00016920268535614014
-0.00017906725406646729
-0.0001894235610961914
-0.00020019710063934326
-0.00021141767501831055
-0.00022289156913757324
-0.00023436546325683594
-0.00024546682834625244
-0.0002559274435043335
-0.00026533007621765137
-0.0002734661102294922
-0.00027999281883239746
-0.00028477609157562256
-0.0002876967191696167
-0.0002888292074203491
-0.0002880394458770752
-0.0002855658531188965
-0.00028145313262939453
-0.00027601420879364014
-0.0002696216106414795
-0.00026229023933410645
-0.0002544671297073364
-0.00024653971195220947
-0.00023855268955230713
-0.00023086369037628174
-0.00022359192371368408
-0.0002167820930480957
-0.00021050870418548584
-0.00020466744899749756
-0.00019922852516174316
-0.00019411742687225342
-0.00018902122974395752
-0.00018389523029327393
-0.00017859041690826416
-0.00017303228378295898
-0.0001669377088546753
-0.00016041100025177002
-0.0001532137393951416
-0.00014549493789672852
-0.00013723969459533691
-0.0001284778118133545
-0.00011949241161346436
-0.0001103430986404419
-0.00010125339031219482
-9.247660636901855e-05
-8.425116539001465e-05
-7.669627666473389e-05
-7.003545761108398e-05
-6.42240047454834e-05
-5.939602851867676e-05
-5.5536627769470215e-05
-5.24669885635376e-05
-5.015730857849121e-05
-4.842877388000488e-05
-4.717707633972168e-05
-4.632771015167236e-05
-4.565715789794922e-05
-4.51505184173584e-05
-4.4673681259155273e-05
-4.425644874572754e-05
-4.374980926513672e-05
-4.3258070945739746e-05
-4.264712333679199e-05
-4.202127456665039e-05
-4.1365623474121094e-05
-4.07099723815918e-05
-3.997981548309326e-05
-3.921985626220703e-05
-3.8430094718933105e-05
-3.768503665924072e-05
-3.6835670471191406e-05
-3.5956501960754395e-05
-3.497302532196045e-05
-3.3989548683166504e-05
-3.2901763916015625e-05
-3.1694769859313965e-05
-3.0413269996643066e-05
-2.919137477874756e-05
-2.7820467948913574e-05
-2.6494264602661133e-05
-2.5153160095214844e-05
-2.3871660232543945e-05
-2.2664666175842285e-05
-2.1636486053466797e-05
-2.0772218704223633e-05
-2.0235776901245117e-05
-1.9952654838562012e-05
-2.002716064453125e-05
-2.059340476989746e-05
-2.16066837310791e-05
-2.314150333404541e-05
-2.5257468223571777e-05
-2.7999281883239746e-05
-8.989870548248291e-05
-0.00010581314563751221
-0.00012005865573883057
-0.00013273954391479492
-0.0001440495252609253
-0.0001544356346130371
-0.00016422569751739502
-0.00017392635345458984
-0.00018392503261566162
-0.00019435584545135498
-0.0002053678035736084
-0.0002168416976928711
-0.0002285987138748169
-0.00024017691612243652
-0.0002513378858566284
-0.0002617388963699341
-0.00027085840702056885
-0.0002786368131637573
-0.0002847611904144287
-0.0002891272306442261
-0.00029169023036956787
-0.00029240548610687256
-0.00029140710830688477
-0.00028870999813079834
-0.00028452277183532715
-0.00027899444103240967
-0.00027239322662353516
-0.000264972448348999
-0.00025700032711029053
-0.0002487450838088989
-0.00024051964282989502
-0.00023250281810760498
-0.00022488832473754883
-0.00021785497665405273
-0.00021128356456756592
-0.00020523369312286377
-0.00019960105419158936
-0.00019419193267822266
-0.00018902122974395752
-0.00018371641635894775
-0.00017821788787841797
-0.00017242133617401123
-0.00016616284847259521
-0.000159338116645813
-0.00015188753604888916
-0.00014385581016540527
-0.00013521313667297363
-0.00012612342834472656
-0.00011667609214782715
-0.0001071542501449585
-9.764730930328369e-05
-8.846819400787354e-05
-7.987022399902344e-05
-7.197260856628418e-05
-6.498396396636963e-05
-5.900859832763672e-05
-5.40316104888916e-05
-5.0067901611328125e-05
-4.7013163566589355e-05
-4.4733285903930664e-05
-4.316866397857666e-05
-4.2110681533813477e-05
-4.1365623474121094e-05
-4.093348979949951e-05
-4.0650367736816406e-05
-4.038214683532715e-05
-4.011392593383789e-05
-3.980100154876709e-05
-3.947317600250244e-05
-3.9011240005493164e-05
-3.853440284729004e-05
-3.7983059883117676e-05
-3.7416815757751465e-05
-3.679096698760986e-05
-3.616511821746826e-05
-3.5449862480163574e-05
-3.470480442047119e-05
-3.388524055480957e-05
-3.30805778503418e-05
-3.21120023727417e-05
-3.109872341156006e-05
-2.9861927032470703e-05
-2.86102294921875e-05
-2.720952033996582e-05
-2.5734305381774902e-05
-2.4110078811645508e-05
-2.2426247596740723e-05
-2.072751522064209e-05
-1.893937587738037e-05
-1.7240643501281738e-05
-1.5616416931152344e-05
-1.4126300811767578e-05
-1.284480094909668e-05
-1.1727213859558105e-05
-1.0952353477478027e-05
-1.055002212524414e-05
-1.0609626770019531e-05
-1.1086463928222656e-05
-1.2099742889404297e-05
-1.3768672943115234e-05
-9.79006290435791e-05
-0.00011380016803741455
-0.00012786686420440674
-0.0001401752233505249
-0.00015103816986083984
-0.00016091763973236084
-0.00017020106315612793
-0.00017945468425750732
-0.00018899142742156982
-0.00019912421703338623
-0.0002098679542541504
-0.00022113323211669922
-0.00023265182971954346
-0.0002440810203552246
-0.00025506317615509033
-0.0002651810646057129
-0.0002740025520324707
-0.0002814680337905884
-0.0002872645854949951
-0.0002913475036621094
-0.00029371678829193115
-0.0002942979335784912
-0.00029318034648895264
-0.00029058754444122314
-0.00028643012046813965
-0.0002810359001159668
-0.0002744942903518677
-0.00026704370975494385
-0.00025904178619384766
-0.0002506822347640991
-0.00024227797985076904
-0.00023406744003295898
-0.00022619962692260742
-0.00021880865097045898
-0.0002121180295944214
-0.00020582973957061768
-0.0002000182867050171
-0.00019453465938568115
-0.00018912553787231445
-0.00018364191055297852
-0.00017802417278289795
-0.00017207860946655273
-0.00016558170318603516
-0.00015853345394134521
-0.00015081465244293213
-0.0001424252986907959
-0.000133514404296875
-0.0001240372657775879
-0.00011421740055084229
-0.00010421872138977051
-9.433925151824951e-05
-8.478760719299316e-05
-7.575750350952148e-05
-6.754696369171143e-05
-6.0245394706726074e-05
-5.410611629486084e-05
-4.900991916656494e-05
-4.4971704483032227e-05
-4.1857361793518066e-05
-3.975629806518555e-05
-3.828108310699463e-05
-3.738701343536377e-05
-3.68952751159668e-05
-3.664195537567139e-05
-3.6597251892089844e-05
-3.6522746086120605e-05
-3.650784492492676e-05
-3.6329030990600586e-05
-3.6135315895080566e-05
-3.591179847717285e-05
-3.546476364135742e-05
-3.5062432289123535e-05
-3.4555792808532715e-05
-3.40193510055542e-05
-3.343820571899414e-05
-3.282725811004639e-05
-3.215670585632324e-05
-3.1441450119018555e-05
-3.065168857574463e-05
-2.968311309814453e-05
-2.8640031814575195e-05
-2.7447938919067383e-05
-2.60770320892334e-05
-2.4586915969848633e-05
-2.294778823852539e-05
-2.1189451217651367e-05
-1.926720142364502e-05
-1.722574234008789e-05
-1.5109777450561523e-05
-1.2978911399841309e-05
-1.0877847671508789e-05
-8.806586265563965e-06
-6.854534149169922e-06
-5.066394805908203e-06
-3.5315752029418945e-06
-2.3096799850463867e-06
-1.4156103134155273e-06
-9.5367431640625e-07
-9.834766387939453e-07
-1.475214958190918e-06
-0.00010761618614196777
-0.00012330710887908936
-0.00013700127601623535
-0.00014878809452056885
-0.00015906989574432373
-0.00016817450523376465
-0.00017683207988739014
-0.0001852959394454956
-0.00019407272338867188
-0.0002034902572631836
-0.0002135932445526123
-0.00022429227828979492
-0.00023530423641204834
-0.00024625658988952637
-0.0002568066120147705
-0.00026650726795196533
-0.0002750307321548462
-0.0002821385860443115
-0.00028771162033081055
-0.00029164552688598633
-0.00029397010803222656
-0.000294610857963562
-0.0002936720848083496
-0.00029124319553375244
-0.00028733909130096436
-0.00028221309185028076
-0.00027589499950408936
-0.00026863813400268555
-0.0002606809139251709
-0.0002523064613342285
-0.00024384260177612305
-0.0002354830503463745
-0.00022743642330169678
-0.00021989643573760986
-0.000212937593460083
-0.00020650029182434082
-0.00020046532154083252
-0.00019484758377075195
-0.00018931925296783447
-0.00018374621868133545
-0.0001780092716217041
-0.00017182528972625732
-0.0001652240753173828
-0.0001579076051712036
-0.0001499652862548828
-0.00014135241508483887
-0.00013205409049987793
-0.00012227892875671387
-0.00011205673217773438
-0.0001016855239868164
-9.134411811828613e-05
-8.13901424407959e-05
-7.203221321105957e-05
-6.347894668579102e-05
-5.5924057960510254e-05
-4.951655864715576e-05
-4.4286251068115234e-05
-4.0203332901000977e-05
-3.72081995010376e-05
-3.510713577270508e-05
-3.384053707122803e-05
-3.3155083656311035e-05
-3.287196159362793e-05
-3.288686275482178e-05
-3.300607204437256e-05
-3.316998481750488e-05
-3.330409526824951e-05
-3.331899642944336e-05
-3.3274292945861816e-05
-3.311038017272949e-05
-3.285706043243408e-05
-3.2514333724975586e-05
-3.209710121154785e-05
-3.166496753692627e-05
-3.11434268951416e-05
-3.0606985092163086e-05
-3.0055642127990723e-05
-2.9355287551879883e-05
-2.8535723686218262e-05
-2.7701258659362793e-05
-2.664327621459961e-05
-2.5480985641479492e-05
-2.4050474166870117e-05
-2.2545456886291504e-05
-2.0802021026611328e-05
-1.8835067749023438e-05
-1.671910285949707e-05
-1.4513731002807617e-05
-1.2159347534179688e-05
-9.685754776000977e-06
-7.197260856628418e-06
-4.678964614868164e-06
-2.175569534301758e-06
1.1920928955078125e-07
2.339482307434082e-06
4.32133674621582e-06
6.0051679611206055e-06
7.37607479095459e-06
8.344650268554688e-06
8.821487426757812e-06
-0.00011827051639556885
-0.0001335740089416504
-0.00014670193195343018
-0.00015789270401000977
-0.0001675039529800415
-0.00017586350440979004
-0.00018355250358581543
-0.0001911371946334839
-0.00019894540309906006
-0.00020734965801239014
-0.00021657347679138184
-0.00022643804550170898
-0.00023666024208068848
-0.0002469569444656372
-0.00025691092014312744
-0.00026613473892211914
-0.0002742558717727661
-0.00028114020824432373
-0.00028651952743530273
-0.00029046833515167236
-0.00029280781745910645
-0.00029368698596954346
-0.0002929866313934326
-0.00029087066650390625
-0.0002874135971069336
-0.00028264522552490234
-0.0002766549587249756
-0.0002696812152862549
-0.00026191771030426025
-0.00025369226932525635
-0.0002452284097671509
-0.00023674964904785156
-0.00022868812084197998
-0.00022092461585998535
-0.00021381676197052002
-0.00020726025104522705
-0.00020113587379455566
-0.00019536912441253662
-0.00018969178199768066
-0.00018402934074401855
-0.00017818808555603027
-0.00017188489437103271
-0.0001650601625442505
-0.00015757977962493896
-0.000149458646774292
-0.0001405179500579834
-0.00013099610805511475
-0.00012084841728210449
-0.0001102834939956665
-9.953975677490234e-05
-8.879601955413818e-05
-7.842481136322021e-05
-6.872415542602539e-05
-5.97834587097168e-05
-5.1975250244140625e-05
-4.534423351287842e-05
-4.0024518966674805e-05
-3.591179847717285e-05
-3.293156623840332e-05
-3.094971179962158e-05
-2.987682819366455e-05
-2.9459595680236816e-05
-2.9385089874267578e-05
-2.9668211936950684e-05
-2.995133399963379e-05
-3.032386302947998e-05
-3.065168857574463e-05
-3.081560134887695e-05
-3.0875205993652344e-05
-3.0800700187683105e-05
-3.0621886253356934e-05
-3.0338764190673828e-05
-2.9981136322021484e-05
-2.962350845336914e-05
-2.9221177101135254e-05
-2.8714537620544434e-05
-2.8207898139953613e-05
-2.759695053100586e-05
-2.6851892471313477e-05
-2.594292163848877e-05
-2.4974346160888672e-05
-2.3812055587768555e-05
-2.244114875793457e-05
-2.0831823348999023e-05
-1.9028782844543457e-05
-1.7002224922180176e-05
-1.4781951904296875e-05
-1.239776611328125e-05
-9.819865226745605e-06
-7.107853889465332e-06
-4.351139068603516e-06
-1.475214958190918e-06
1.3560056686401367e-06
4.1425228118896484e-06
6.8247318267822266e-06
9.402632713317871e-06
1.1771917343139648e-05
1.3887882232666016e-05
1.564621925354004e-05
1.7002224922180176e-05
-0.00012916326522827148
-0.00014397501945495605
-0.00015658140182495117
-0.0001671314239501953
-0.00017586350440979004
-0.00018337368965148926
-0.00019019842147827148
-0.00019669532775878906
-0.00020344555377960205
-0.00021082162857055664
-0.00021886825561523438
-0.0002276301383972168
-0.00023694336414337158
-0.00024643540382385254
-0.0002557039260864258
-0.0002643316984176636
-0.0002721250057220459
-0.00027877092361450195
-0.00028409063816070557
-0.0002880096435546875
-0.0002905130386352539
-0.0002916306257247925
-0.0002913475036621094
-0.0002896338701248169
-0.0002866685390472412
-0.00028233230113983154
-0.0002767890691757202
-0.0002702772617340088
-0.0002627819776535034
-0.00025472044944763184
-0.00024637579917907715
-0.00023791193962097168
-0.00022977590560913086
-0.00022201240062713623
-0.00021477043628692627
-0.00020809471607208252
-0.0002018660306930542
-0.00019598007202148438
-0.00019025802612304688
-0.00018452107906341553
-0.00017854571342468262
-0.00017210841178894043
-0.00016514956951141357
-0.00015757977962493896
-0.00014923512935638428
-0.00014013051986694336
-0.00013028085231781006
-0.00011979043483734131
-0.00010892748832702637
-9.775161743164062e-05
-8.666515350341797e-05
-7.590651512145996e-05
-6.577372550964355e-05
-5.65946102142334e-05
-4.844367504119873e-05
-4.163384437561035e-05
-3.6209821701049805e-05
-3.203749656677246e-05
-2.911686897277832e-05
-2.734363079071045e-05
-2.6419758796691895e-05
-2.6240944862365723e-05
-2.6404857635498047e-05
-2.689659595489502e-05
-2.752244472503662e-05
-2.8058886528015137e-05
-2.8535723686218262e-05
-2.880394458770752e-05
-2.898275852203369e-05
-2.9027462005615234e-05
-2.8818845748901367e-05
-2.855062484741211e-05
-2.828240394592285e-05
-2.7924776077270508e-05
-2.752244472503662e-05
-2.7105212211608887e-05
-2.658367156982422e-05
-2.5987625122070312e-05
-2.5346875190734863e-05
-2.4527311325073242e-05
-2.3558735847473145e-05
-2.238154411315918e-05
-2.1070241928100586e-05
-1.940131187438965e-05
-1.7568469047546387e-05
-1.551210880279541e-05
-1.3232231140136719e-05
-1.0669231414794922e-05
-8.016824722290039e-06
-5.170702934265137e-06
-2.16066837310791e-06
9.08970832824707e-07
4.0531158447265625e-06
7.18235969543457e-06
1.023709774017334e-05
1.3262033462524414e-05
1.6123056411743164e-05
1.8805265426635742e-05
2.1159648895263672e-05
2.333521842956543e-05
-0.00014004111289978027
-0.00015419721603393555
-0.00016610324382781982
-0.0001758784055709839
-0.00018392503261566162
-0.00019063055515289307
-0.0001964271068572998
-0.00020191073417663574
-0.00020754337310791016
-0.0002136528491973877
-0.00022055208683013916
-0.000228196382522583
-0.00023643672466278076
-0.00024497509002685547
-0.00025346875190734863
-0.00026157498359680176
-0.00026895105838775635
-0.00027535855770111084
-0.0002806037664413452
-0.00028461217880249023
-0.00028739869594573975
-0.0002887994050979614
-0.00028899312019348145
-0.00028774142265319824
-0.00028526782989501953
-0.0002814978361129761
-0.00027649104595184326
-0.00027032196521759033
-0.00026325881481170654
-0.00025554001331329346
-0.0002473592758178711
-0.0002390146255493164
-0.00023086369037628174
-0.00022311508655548096
-0.0002157837152481079
-0.00020901858806610107
-0.00020270049571990967
-0.00019675493240356445
-0.00019095838069915771
-0.00018514692783355713
-0.00017908215522766113
-0.0001726299524307251
-0.000165596604347229
-0.00015789270401000977
-0.00014929473400115967
-0.00014004111289978027
-0.00012996792793273926
-0.0001192241907119751
-0.00010800361633300781
-9.651482105255127e-05
-8.504092693328857e-05
-7.396936416625977e-05
-6.340444087982178e-05
-5.385279655456543e-05
-4.547834396362305e-05
-3.844499588012695e-05
-3.287196159362793e-05
-2.8759241104125977e-05
-2.5928020477294922e-05
-2.421438694000244e-05
-2.3499131202697754e-05
-2.3558735847473145e-05
-2.3990869522094727e-05
-2.473592758178711e-05
-2.5600194931030273e-05
-2.633035182952881e-05
-2.6941299438476562e-05
-2.734363079071045e-05
-2.7552247047424316e-05
-2.7552247047424316e-05
-2.7433037757873535e-05
-2.720952033996582e-05
-2.6911497116088867e-05
-2.658367156982422e-05
-2.6181340217590332e-05
-2.5779008865356445e-05
-2.5317072868347168e-05
-2.4721026420593262e-05
-2.4050474166870117e-05
-2.327561378479004e-05
-2.232193946838379e-05
-2.1189451217651367e-05
-1.983344554901123e-05
-1.817941665649414e-05
-1.633167266845703e-05
-1.4200806617736816e-05
-1.1920928955078125e-05
-9.313225746154785e-06
-6.556510925292969e-06
-3.56137752532959e-06
-4.917383193969727e-07
2.7418136596679688e-06
6.0498714447021484e-06
9.417533874511719e-06
1.2740492820739746e-05
1.6033649444580078e-05
1.9252300262451172e-05
2.2336840629577637e-05
2.5227665901184082e-05
2.7894973754882812e-05
-0.00015038251876831055
-0.00016389787197113037
-0.0001751333475112915
-0.00018416345119476318
-0.00019147992134094238
-0.00019727647304534912
-0.0002022087574005127
-0.00020669400691986084
-0.00021117925643920898
-0.00021614134311676025
-0.00022177398204803467
-0.000228196382522583
-0.0002352893352508545
-0.0002428889274597168
-0.00025059282779693604
-0.00025807321071624756
-0.0002650320529937744
-0.00027120113372802734
-0.0002764463424682617
-0.0002805441617965698
-0.00028355419635772705
-0.0002853274345397949
-0.0002859830856323242
-0.00028534233570098877
-0.00028336048126220703
-0.00028014183044433594
-0.00027570128440856934
-0.0002700984477996826
-0.00026342272758483887
-0.0002560615539550781
-0.00024813413619995117
-0.00023996829986572266
-0.00023193657398223877
-0.000224187970161438
-0.00021690130233764648
-0.00021004676818847656
-0.00020369887351989746
-0.0001976490020751953
-0.00019182264804840088
-0.00018593668937683105
-0.0001799166202545166
-0.00017334520816802979
-0.0001662224531173706
-0.00015842914581298828
-0.0001498013734817505
-0.00014030933380126953
-0.0001300424337387085
-0.00011911988258361816
-0.00010755658149719238
-9.57101583480835e-05
-8.392333984375e-05
-7.240474224090576e-05
-6.154179573059082e-05
-5.167722702026367e-05
-4.3079257011413574e-05
-3.585219383239746e-05
-3.0174851417541504e-05
-2.6017427444458008e-05
-2.3245811462402344e-05
-2.1710991859436035e-05
-2.1189451217651367e-05
-2.1472573280334473e-05
-2.2202730178833008e-05
-2.3156404495239258e-05
-2.421438694000244e-05
-2.5138258934020996e-05
-2.5913119316101074e-05
-2.637505531311035e-05
-2.6628375053405762e-05
-2.664327621459961e-05
-2.6524066925048828e-05
-2.6226043701171875e-05
-2.586841583251953e-05
-2.549588680267334e-05
-2.5078654289245605e-05
-2.4616718292236328e-05
-2.4184584617614746e-05
-2.3603439331054688e-05
-2.2962689399719238e-05
-2.2217631340026855e-05
-2.1204352378845215e-05
-2.0056962966918945e-05
-1.8656253814697266e-05
-1.704692840576172e-05
-1.5184283256530762e-05
-1.3083219528198242e-05
-1.0669231414794922e-05
-8.091330528259277e-06
-5.304813385009766e-06
-2.2649765014648438e-06
8.940696716308594e-07
4.202127456665039e-06
7.62939453125e-06
1.1056661605834961e-05
1.4588236808776855e-05
1.8030405044555664e-05
2.1472573280334473e-05
2.4870038032531738e-05
2.802908420562744e-05
3.109872341156006e-05
-0.0001601874828338623
-0.0001728832721710205
-0.00018340349197387695
-0.00019177794456481934
-0.00019828975200653076
-0.0002034008502960205
-0.0002074986696243286
-0.00021101534366607666
-0.00021447241306304932
-0.00021821260452270508
-0.00022266805171966553
-0.0002278834581375122
-0.00023385882377624512
-0.0002403855323791504
-0.00024719536304473877
-0.0002540498971939087
-0.0002605915069580078
-0.0002665668725967407
-0.000271722674369812
-0.0002759993076324463
-0.0002792477607727051
-0.00028139352798461914
-0.00028252601623535156
-0.0002823770046234131
-0.00028105080127716064
-0.00027839839458465576
-0.00027455389499664307
-0.000269472599029541
-0.0002632737159729004
-0.00025628507137298584
-0.0002487301826477051
-0.00024086236953735352
-0.00023296475410461426
-0.00022527575492858887
-0.00021795928478240967
-0.0002111196517944336
-0.0002047717571258545
-0.00019869208335876465
-0.00019283592700958252
-0.00018693506717681885
-0.00018081068992614746
-0.00017429888248443604
-0.0001671314239501953
-0.00015926361083984375
-0.00015057623386383057
-0.00014096498489379883
-0.00013054907321929932
-0.00011937320232391357
-0.00010764598846435547