# vtk DataFile Version 3.0
2D PINN Solution
ASCII
DATASET STRUCTURED_GRID
DIMENSIONS 100 100 1
POINTS 10000 float
-1.0 -1.0 0.0
-0.9797979797979798 -1.0 0.0
-0.9595959595959596 -1.0 0.0
-0.9393939393939394 -1.0 0.0
-0.9191919191919192 -1.0 0.0
-0.898989898989899 -1.0 0.0
-0.8787878787878788 -1.0 0.0
-0.8585858585858586 -1.0 0.0
-0.8383838383838383 -1.0 0.0
-0.8181818181818181 -1.0 0.0
-0.797979797979798 -1.0 0.0
-0.7777777777777778 -1.0 0.0
-0.7575757575757576 -1.0 0.0
-0.7373737373737373 -1.0 0.0
-0.7171717171717171 -1.0 0.0
-0.696969696969697 -1.0 0.0
-0.6767676767676767 -1.0 0.0
-0.6565656565656566 -1.0 0.0
-0.6363636363636364 -1.0 0.0
-0.6161616161616161 -1.0 0.0
-0.5959595959595959 -1.0 0.0
-0.5757575757575757 -1.0 0.0
-0.5555555555555556 -1.0 0.0
-0.5353535353535352 -1.0 0.0
-0.5151515151515151 -1.0 0.0
-0.4949494949494949 -1.0 0.0
-0.4747474747474747 -1.0 0.0
-0.4545454545454545 -1.0 0.0
-0.43434343434343425 -1.0 0.0
-0.41414141414141414 -1.0 0.0
-0.3939393939393939 -1.0 0.0
-0.3737373737373737 -1.0 0.0
-0.3535353535353535 -1.0 0.0
-0.33333333333333326 -1.0 0.0
-0.31313131313131304 -1.0 0.0
-0.2929292929292928 -1.0 0.0
-0.2727272727272727 -1.0 0.0
-0.2525252525252525 -1.0 0.0
-0.23232323232323226 -1.0 0.0
-0.21212121212121204 -1.0 0.0
-0.19191919191919182 -1.0 0.0
-0.1717171717171716 -1.0 0.0
-0.1515151515151515 -1.0 0.0
-0.13131313131313127 -1.0 0.0
-0.11111111111111105 -1.0 0.0
-0.09090909090909083 -1.0 0.0
-0.07070707070707061 -1.0 0.0
-0.050505050505050386 -1.0 0.0
-0.030303030303030276 -1.0 0.0
-0.010101010101010055 -1.0 0.0
0.010101010101010166 -1.0 0.0
0.030303030303030498 -1.0 0.0
0.05050505050505061 -1.0 0.0
0.07070707070707072 -1.0 0.0
0.09090909090909105 -1.0 0.0
0.11111111111111116 -1.0 0.0
0.1313131313131315 -1.0 0.0
0.1515151515151516 -1.0 0.0
0.1717171717171717 -1.0 0.0
0.19191919191919204 -1.0 0.0
0.21212121212121215 -1.0 0.0
0.2323232323232325 -1.0 0.0
0.2525252525252526 -1.0 0.0
0.27272727272727293 -1.0 0.0
0.29292929292929304 -1.0 0.0
0.31313131313131315 -1.0 0.0
0.3333333333333335 -1.0 0.0
0.3535353535353536 -1.0 0.0
0.3737373737373739 -1.0 0.0
0.39393939393939403 -1.0 0.0
0.41414141414141437 -1.0 0.0
0.4343434343434345 -1.0 0.0
0.4545454545454546 -1.0 0.0
0.4747474747474749 -1.0 0.0
0.49494949494949503 -1.0 0.0
0.5151515151515154 -1.0 0.0
0.5353535353535355 -1.0 0.0
0.5555555555555556 -1.0 0.0
0.5757575757575759 -1.0 0.0
0.595959595959596 -1.0 0.0
0.6161616161616164 -1.0 0.0
0.6363636363636365 -1.0 0.0
0.6565656565656568 -1.0 0.0
0.6767676767676769 -1.0 0.0
0.696969696969697 -1.0 0.0
0.7171717171717173 -1.0 0.0
0.7373737373737375 -1.0 0.0
0.7575757575757578 -1.0 0.0
0.7777777777777779 -1.0 0.0
0.7979797979797982 -1.0 0.0
0.8181818181818183 -1.0 0.0
0.8383838383838385 -1.0 0.0
0.8585858585858588 -1.0 0.0
0.8787878787878789 -1.0 0.0
0.8989898989898992 -1.0 0.0
0.9191919191919193 -1.0 0.0
0.9393939393939394 -1.0 0.0
0.9595959595959598 -1.0 0.0
0.9797979797979799 -1.0 0.0
1.0 -1.0 0.0
-1.0 -0.9797979797979798 0.0
-0.9797979797979798 -0.9797979797979798 0.0
-0.9595959595959596 -0.9797979797979798 0.0
-0.9393939393939394 -0.9797979797979798 0.0
-0.9191919191919192 -0.9797979797979798 0.0
-0.898989898989899 -0.9797979797979798 0.0
-0.8787878787878788 -0.9797979797979798 0.0
-0.8585858585858586 -0.9797979797979798 0.0
-0.8383838383838383 -0.9797979797979798 0.0
-0.8181818181818181 -0.9797979797979798 0.0
-0.797979797979798 -0.9797979797979798 0.0
-0.7777777777777778 -0.9797979797979798 0.0
-0.7575757575757576 -0.9797979797979798 0.0
-0.7373737373737373 -0.9797979797979798 0.0
-0.7171717171717171 -0.9797979797979798 0.0
-0.696969696969697 -0.9797979797979798 0.0
-0.6767676767676767 -0.9797979797979798 0.0
-0.6565656565656566 -0.9797979797979798 0.0
-0.6363636363636364 -0.9797979797979798 0.0
-0.6161616161616161 -0.9797979797979798 0.0
-0.5959595959595959 -0.9797979797979798 0.0
-0.5757575757575757 -0.9797979797979798 0.0
-0.5555555555555556 -0.9797979797979798 0.0
-0.5353535353535352 -0.9797979797979798 0.0
-0.5151515151515151 -0.9797979797979798 0.0
-0.4949494949494949 -0.9797979797979798 0.0
-0.4747474747474747 -0.9797979797979798 0.0
-0.4545454545454545 -0.9797979797979798 0.0
-0.43434343434343425 -0.9797979797979798 0.0
-0.41414141414141414 -0.9797979797979798 0.0
-0.3939393939393939 -0.9797979797979798 0.0
-0.3737373737373737 -0.9797979797979798 0.0
-0.3535353535353535 -0.9797979797979798 0.0
-0.33333333333333326 -0.9797979797979798 0.0
-0.31313131313131304 -0.9797979797979798 0.0
-0.2929292929292928 -0.9797979797979798 0.0
-0.2727272727272727 -0.9797979797979798 0.0
-0.2525252525252525 -0.9797979797979798 0.0
-0.23232323232323226 -0.9797979797979798 0.0
-0.21212121212121204 -0.9797979797979798 0.0
-0.19191919191919182 -0.9797979797979798 0.0
-0.1717171717171716 -0.9797979797979798 0.0
-0.1515151515151515 -0.9797979797979798 0.0
-0.13131313131313127 -0.9797979797979798 0.0
-0.11111111111111105 -0.9797979797979798 0.0
-0.09090909090909083 -0.9797979797979798 0.0
-0.07070707070707061 -0.9797979797979798 0.0
-0.050505050505050386 -0.9797979797979798 0.0
-0.030303030303030276 -0.9797979797979798 0.0
-0.010101010101010055 -0.9797979797979798 0.0
0.010101010101010166 -0.9797979797979798 0.0
0.030303030303030498 -0.9797979797979798 0.0
0.05050505050505061 -0.9797979797979798 0.0
0.07070707070707072 -0.9797979797979798 0.0
0.09090909090909105 -0.9797979797979798 0.0
0.11111111111111116 -0.9797979797979798 0.0
0.1313131313131315 -0.9797979797979798 0.0
0.1515151515151516 -0.9797979797979798 0.0
0.1717171717171717 -0.9797979797979798 0.0
0.19191919191919204 -0.9797979797979798 0.0
0.21212121212121215 -0.9797979797979798 0.0
0.2323232323232325 -0.9797979797979798 0.0
0.2525252525252526 -0.9797979797979798 0.0
0.27272727272727293 -0.9797979797979798 0.0
0.29292929292929304 -0.9797979797979798 0.0
0.31313131313131315 -0.9797979797979798 0.0
0.3333333333333335 -0.9797979797979798 0.0
0.3535353535353536 -0.9797979797979798 0.0
0.3737373737373739 -0.9797979797979798 0.0
0.39393939393939403 -0.9797979797979798 0.0
0.41414141414141437 -0.9797979797979798 0.0
0.4343434343434345 -0.9797979797979798 0.0
0.4545454545454546 -0.9797979797979798 0.0
0.4747474747474749 -0.9797979797979798 0.0
0.49494949494949503 -0.9797979797979798 0.0
0.5151515151515154 -0.9797979797979798 0.0
0.5353535353535355 -0.9797979797979798 0.0
0.5555555555555556 -0.9797979797979798 0.0
0.5757575757575759 -0.9797979797979798 0.0
0.595959595959596 -0.9797979797979798 0.0
0.6161616161616164 -0.9797979797979798 0.0
0.6363636363636365 -0.9797979797979798 0.0
0.6565656565656568 -0.9797979797979798 0.0
0.6767676767676769 -0.9797979797979798 0.0
0.696969696969697 -0.9797979797979798 0.0
0.7171717171717173 -0.9797979797979798 0.0
0.7373737373737375 -0.9797979797979798 0.0
0.7575757575757578 -0.9797979797979798 0.0
0.7777777777777779 -0.9797979797979798 0.0
0.7979797979797982 -0.9797979797979798 0.0
0.8181818181818183 -0.9797979797979798 0.0
0.8383838383838385 -0.9797979797979798 0.0
0.8585858585858588 -0.9797979797979798 0.0
0.8787878787878789 -0.9797979797979798 0.0
0.8989898989898992 -0.9797979797979798 0.0
0.9191919191919193 -0.9797979797979798 0.0
0.9393939393939394 -0.9797979797979798 0.0
0.9595959595959598 -0.9797979797979798 0.0
0.9797979797979799 -0.9797979797979798 0.0
1.0 -0.9797979797979798 0.0
-1.0 -0.9595959595959596 0.0
-0.9797979797979798 -0.9595959595959596 0.0
-0.9595959595959596 -0.9595959595959596 0.0
-0.9393939393939394 -0.9595959595959596 0.0
-0.9191919191919192 -0.9595959595959596 0.0
-0.898989898989899 -0.9595959595959596 0.0
-0.8787878787878788 -0.9595959595959596 0.0
-0.8585858585858586 -0.9595959595959596 0.0
-0.8383838383838383 -0.9595959595959596 0.0
-0.8181818181818181 -0.9595959595959596 0.0
-0.797979797979798 -0.9595959595959596 0.0
-0.7777777777777778 -0.9595959595959596 0.0
-0.7575757575757576 -0.9595959595959596 0.0
-0.7373737373737373 -0.9595959595959596 0.0
-0.7171717171717171 -0.9595959595959596 0.0
-0.696969696969697 -0.9595959595959596 0.0
-0.6767676767676767 -0.9595959595959596 0.0
-0.6565656565656566 -0.9595959595959596 0.0
-0.6363636363636364 -0.9595959595959596 0.0
-0.6161616161616161 -0.9595959595959596 0.0
-0.5959595959595959 -0.9595959595959596 0.0
-0.5757575757575757 -0.9595959595959596 0.0
-0.5555555555555556 -0.9595959595959596 0.0
-0.5353535353535352 -0.9595959595959596 0.0
-0.5151515151515151 -0.9595959595959596 0.0
-0.4949494949494949 -0.9595959595959596 0.0
-0.4747474747474747 -0.9595959595959596 0.0
-0.4545454545454545 -0.9595959595959596 0.0
-0.43434343434343425 -0.9595959595959596 0.0
-0.41414141414141414 -0.9595959595959596 0.0
-0.3939393939393939 -0.9595959595959596 0.0
-0.3737373737373737 -0.9595959595959596 0.0
-0.3535353535353535 -0.9595959595959596 0.0
-0.33333333333333326 -0.9595959595959596 0.0
-0.31313131313131304 -0.9595959595959596 0.0
-0.2929292929292928 -0.9595959595959596 0.0
-0.2727272727272727 -0.9595959595959596 0.0
-0.2525252525252525 -0.9595959595959596 0.0
-0.23232323232323226 -0.9595959595959596 0.0
-0.21212121212121204 -0.9595959595959596 0.0
-0.19191919191919182 -0.9595959595959596 0.0
-0.1717171717171716 -0.9595959595959596 0.0
-0.1515151515151515 -0.9595959595959596 0.0
-0.13131313131313127 -0.9595959595959596 0.0
-0.11111111111111105 -0.9595959595959596 0.0
-0.09090909090909083 -0.9595959595959596 0.0
-0.07070707070707061 -0.9595959595959596 0.0
-0.050505050505050386 -0.9595959595959596 0.0
-0.030303030303030276 -0.9595959595959596 0.0
-0.010101010101010055 -0.9595959595959596 0.0
0.010101010101010166 -0.9595959595959596 0.0
0.030303030303030498 -0.9595959595959596 0.0
0.05050505050505061 -0.9595959595959596 0.0
0.07070707070707072 -0.9595959595959596 0.0
0.09090909090909105 -0.9595959595959596 0.0
0.11111111111111116 -0.9595959595959596 0.0
0.1313131313131315 -0.9595959595959596 0.0
0.1515151515151516 -0.9595959595959596 0.0
0.1717171717171717 -0.9595959595959596 0.0
0.19191919191919204 -0.9595959595959596 0.0
0.21212121212121215 -0.9595959595959596 0.0
[...]
POINT_DATA 10000
SCALARS u float 1
LOOKUP_TABLE default
-7.802248001098633e-05
-9.004771709442139e-05
-0.00010180473327636719
-0.00011309981346130371
-0.00012367963790893555
-0.0001334547996520996
-0.0001423954963684082
-0.00015045702457427979
-0.0001575946807861328
-0.00016385316848754883
-0.0001695007085800171
-0.0001744478940963745
-0.00017905235290527344
-0.00018331408500671387
-0.00018741190433502197
-0.00019152462482452393
-0.00019566714763641357
-0.0002000182867050171
-0.00020469725131988525
-0.00020956993103027344
-0.00021472573280334473
-0.00022011995315551758
-0.0002257227897644043
-0.00023148953914642334
-0.00023743510246276855
-0.00024339556694030762
-0.00024937093257904053
-0.00025531649589538574
-0.00026123225688934326
-0.0002669692039489746
-0.00027245283126831055
-0.00027757883071899414
-0.00028215348720550537
-0.000286102294921875
-0.00028927624225616455
-0.00029164552688598633
-0.0002930164337158203
-0.0002932697534561157
-0.00029258430004119873
-0.0002908557653427124
-0.00028824806213378906
-0.0002847611904144287
-0.00028051435947418213
-0.00027558207511901855
-0.0002701282501220703
-0.00026413798332214355
-0.0002578049898147583
-0.000251084566116333
-0.00024399161338806152
-0.00023666024208068848
-0.00022904574871063232
-0.00022126734256744385
-0.00021323561668395996
-0.00020523369312286377
-0.0001971423625946045
-0.00018918514251708984
-0.00018136203289031982
-0.0001738816499710083
-0.0001668184995651245
-0.00016020238399505615
-0.000154152512550354
-0.00014881789684295654
-0.00014418363571166992
-0.000140264630317688
-0.00013706088066101074
-0.00013458728790283203
-0.00013275444507598877
-0.0001316666603088379
-0.00013107061386108398
-0.0001309812068939209
-0.00013133883476257324
-0.00013211369514465332
-0.00013315677642822266
-0.00013443827629089355
-0.0001359879970550537
-0.00013762712478637695
-0.00013956427574157715
-0.0001415163278579712
-0.0001436769962310791
-0.00014601647853851318
-0.00014850497245788574
-0.00015129148960113525
-0.0001542419195175171
-0.0001574009656906128
-0.000160902738571167
-0.00016452372074127197
-0.00016832351684570312
-0.00017227232456207275
-0.00017629563808441162
-0.0001802891492843628
-0.00018411874771118164
-0.00018775463104248047
-0.00019095838069915771
-0.00019380450248718262
-0.00019600987434387207
-0.00019752979278564453
-0.00019837915897369385
-0.00019834935665130615
-0.00019751489162445068
-0.00019578635692596436
-8.080899715423584e-05
-9.21785831451416e-05
-0.00010311603546142578
-0.00011354684829711914
-0.00012336671352386475
-0.00013241171836853027
-0.00014063715934753418
-0.00014810264110565186
-0.00015468895435333252
-0.00016057491302490234
-0.0001659095287322998
-0.00017076730728149414
-0.0001752227544784546
-0.0001795440912246704
-0.00018377602100372314
-0.00018806755542755127
-0.00019252300262451172
-0.00019720196723937988
-0.0002021193504333496
-0.0002073347568511963
-0.00021281838417053223
-0.00021849572658538818
-0.0002244412899017334
-0.000230446457862854
-0.00023651123046875
-0.0002426356077194214
-0.0002487301826477051
-0.00025482475757598877
-0.000260770320892334
-0.0002665519714355469
-0.0002720952033996582
-0.0002772212028503418
-0.0002819448709487915
-0.00028602778911590576
-0.00028930604457855225
-0.00029164552688598633
-0.0002930760383605957
-0.0002933889627456665
-0.00029265880584716797
-0.00029075145721435547
-0.00028796494007110596
-0.0002841353416442871
-0.00027954578399658203
-0.0002742856740951538
-0.0002683699131011963
-0.00026197731494903564
-0.0002552419900894165
-0.00024816393852233887
-0.00024081766605377197
-0.00023330748081207275
-0.00022551417350769043
-0.0002177208662033081
-0.00020979344844818115
-0.0002018362283706665
-0.00019402801990509033
-0.00018638372421264648
-0.0001789480447769165
-0.0001719146966934204
-0.00016526877880096436
-0.0001591891050338745
-0.0001538395881652832
-0.0001490861177444458
-0.00014497339725494385
-0.00014172494411468506
-0.00013911724090576172
-0.0001372694969177246
-0.00013606250286102295
-0.0001354515552520752
-0.00013540685176849365
-0.00013580918312072754
-0.0001366138458251953
-0.00013768672943115234
-0.00013904273509979248
-0.00014062225818634033
-0.00014221668243408203
-0.0001439899206161499
-0.00014580786228179932
-0.00014771521091461182
-0.000149652361869812
-0.000151708722114563
-0.0001538991928100586
-0.00015622377395629883
-0.00015872716903686523
-0.00016148388385772705
-0.00016444921493530273
-0.00016769766807556152
-0.00017112493515014648
-0.00017473101615905762
-0.00017848610877990723
-0.00018227100372314453
-0.00018602609634399414
-0.00018960237503051758
-0.00019294023513793945
-0.0001958310604095459
-0.00019824504852294922
-0.0001999884843826294
-0.0002009868621826172
-0.0002012401819229126
-0.00020059943199157715
-0.00019910931587219238
-8.33272933959961e-05
-9.381771087646484e-05
-0.00010403990745544434
-0.00011369585990905762
-0.0001227259635925293
-0.00013105571269989014
-0.00013865530490875244
-0.00014546513557434082
-0.00015157461166381836
-0.00015714764595031738
-0.00016224384307861328
-0.0001669377088546753
-0.00017139315605163574
-0.0001757293939590454
-0.00018006563186645508
-0.00018455088138580322
-0.00018928945064544678
-0.0001942366361618042
-0.00019948184490203857
-0.00020498037338256836
-0.00021079182624816895
-0.000216752290725708
-0.00022286176681518555
-0.0002291649580001831
-0.00023539364337921143
-0.0002416074275970459
-0.0002478063106536865
-0.00025391578674316406
-0.0002598762512207031
-0.0002656280994415283
-0.00027123093605041504
-0.0002764016389846802
-0.0002811700105667114
-0.0002853572368621826
-0.0002887547016143799
-0.00029124319553375244
-0.0002927035093307495
-0.0002931058406829834
-0.0002923011779785156
-0.00029036402702331543
-0.0002873837947845459
-0.0002833455801010132
-0.00027845799922943115
-0.0002728700637817383
-0.0002665966749191284
-0.0002598017454147339
-0.00025269389152526855
-0.0002453029155731201
-0.00023764371871948242
-0.00022983551025390625
-0.0002219676971435547
-0.00021395087242126465
-0.00020606815814971924
-0.00019820034503936768
-0.00019049644470214844
-0.00018301606178283691
-0.0001758784055709839
-0.0001691877841949463
-0.00016297399997711182
-0.0001573711633682251
-0.00015242397785186768
-0.00014816224575042725
-0.00014466047286987305
-0.00014188885688781738
-0.0001398921012878418
-0.0001386106014251709
-0.00013794004917144775
-0.0001378953456878662
-0.0001383572816848755
-0.0001392066478729248
-0.00014044344425201416
-0.00014193356037139893
-0.00014363229274749756
-0.00014543533325195312
-0.0001472383737564087
-0.00014910101890563965
-0.00015097856521606445
-0.00015282630920410156
-0.00015467405319213867
-0.00015655159950256348
-0.00015844404697418213
-0.00016039609909057617
-0.00016258656978607178
-0.00016489624977111816
-0.00016748905181884766
-0.00017030537128448486
-0.00017333030700683594
-0.0001766979694366455
-0.0001801997423171997
-0.000183790922164917
-0.00018753111362457275
-0.00019112229347229004
-0.0001944899559020996
-0.00019755959510803223
-0.00020012259483337402
-0.0002021193504333496
-0.00020338594913482666
-0.00020390748977661133
-0.00020353496074676514
-0.00020228326320648193
-8.538365364074707e-05
-9.520351886749268e-05
-0.00010460615158081055
-0.00011351704597473145
-0.00012181699275970459
-0.00012946128845214844
-0.0001364201307296753
-0.00014272332191467285
-0.0001484900712966919
-0.00015369057655334473
-0.00015853345394134521
-0.00016310811042785645
-0.00016751885414123535
-0.0001719444990158081
-0.00017639994621276855
-0.00018104910850524902
-0.00018599629402160645
-0.00019118189811706543
-0.00019678473472595215
-0.00020253658294677734
-0.0002085864543914795
-0.00021480023860931396
-0.00022114813327789307
-0.00022752583026885986
-0.00023390352725982666
-0.00024023652076721191
-0.000246390700340271
-0.00025250017642974854
-0.0002584010362625122
-0.0002641528844833374
-0.00026977062225341797
-0.0002749711275100708
-0.0002798140048980713
-0.00028401613235473633
-0.00028751790523529053
-0.00029011070728302
-0.0002917051315307617
-0.00029218196868896484
-0.0002914220094680786
-0.00028949975967407227
-0.0002863556146621704
-0.00028221309185028076
-0.00027711689472198486
-0.00027120113372802734
-0.0002646595239639282
-0.00025753676891326904
-0.00025007128715515137
-0.00024232268333435059
-0.0002343505620956421
-0.00022627413272857666
-0.00021818280220031738
-0.0002100914716720581
-0.00020210444927215576
-0.00019419193267822266
-0.0001865476369857788
-0.00017920136451721191
-0.00017224252223968506
-0.00016574561595916748
-0.0001598149538040161
-0.0001545548439025879
-0.00015000998973846436
-0.00014619529247283936
-0.00014312565326690674
-0.00014090538024902344
-0.00013932585716247559
-0.00013856589794158936
-0.00013843178749084473
-0.0001388341188430786
-0.00013978779315948486
-0.0001411736011505127
-0.00014281272888183594
-0.00014476478099822998
-0.00014677643775939941
-0.00014886260032653809
-0.0001509636640548706
-0.00015300512313842773
-0.00015494227409362793
-0.00015683472156524658
-0.0001585930585861206
-0.00016035139560699463
-0.00016205012798309326
-0.00016376376152038574
-0.000165596604347229
-0.0001675933599472046
-0.0001697838306427002
-0.00017227232456207275
-0.00017499923706054688
-0.0001780092716217041
-0.00018130242824554443
-0.0001847594976425171
-0.00018839538097381592
-0.00019200146198272705
-0.0001955479383468628
-0.00019875168800354004
-0.0002016127109527588
-0.00020381808280944824
-0.00020550191402435303
-0.00020626187324523926
-0.00020621716976165771
-0.00020512938499450684
-8.705258369445801e-05
-9.617209434509277e-05
-0.0001048743724822998
-0.00011301040649414062
-0.00012066960334777832
-0.00012765824794769287
-0.0001341402530670166
-0.00013998150825500488
-0.0001453012228012085
-0.00015024840831756592
-0.0001548677682876587
-0.0001592487096786499
-0.0001637190580368042
-0.00016814470291137695
-0.00017276406288146973
-0.00017754733562469482
-0.00018268823623657227
-0.00018818676471710205
-0.0001939535140991211
-0.0001999884843826294
-0.00020626187324523926
-0.0002126842737197876
-0.00021919608116149902
-0.00022564828395843506
-0.0002321004867553711
-0.0002383887767791748
-0.00024449825286865234
-0.00025053322315216064
-0.0002564042806625366
-0.00026206672191619873
-0.0002675652503967285
-0.0002727806568145752
-0.00027754902839660645
-0.00028187036514282227
-0.0002854764461517334
-0.00028827786445617676
-0.0002899765968322754
-0.00029055774211883545
-0.00028993189334869385
-0.00028802454471588135
-0.0002849847078323364
-0.00028073787689208984
-0.0002754628658294678
-0.00026935338973999023
-0.00026251375675201416
-0.00025513768196105957
-0.00024728477001190186
-0.00023925304412841797
-0.00023093819618225098
-0.00022257864475250244
-0.0002142190933227539
-0.0002059340476989746
-0.0001977682113647461
-0.00018981099128723145
-0.0001820772886276245
-0.0001747608184814453
-0.0001679062843322754
-0.0001615583896636963
-0.00015585124492645264
-0.00015082955360412598
-0.00014662742614746094
-0.0001431107521057129
-0.000140458345413208
-0.0001386404037475586
-0.00013755261898040771
-0.00013723969459533691
-0.0001375824213027954
-0.00013849139213562012
-0.0001398921012878418
-0.0001417100429534912
-0.00014381110668182373
-0.00014613568782806396
-0.0001485198736190796
-0.00015094876289367676
-0.00015333294868469238
-0.00015558302402496338
-0.0001577138900756836
-0.00015963613986968994
-0.00016145408153533936
-0.0001630932092666626
-0.00016461312770843506
-0.00016613304615020752
-0.00016769766807556152
-0.0001693814992904663
-0.00017124414443969727
-0.00017334520816802979
-0.00017580389976501465
-0.00017851591110229492
-0.00018161535263061523
-0.00018499791622161865
-0.0001885741949081421
-0.00019225478172302246
-0.00019590556621551514
-0.00019940733909606934
-0.00020247697830200195
-0.00020506978034973145
-0.00020711123943328857
-0.00020825862884521484
-0.00020854175090789795
-0.00020781159400939941
-8.843839168548584e-05
-9.681284427642822e-05
-0.00010475516319274902
-0.0001122504472732544
-0.00011929869651794434
-0.00012575089931488037
-0.0001316666603088379
-0.00013712048530578613
-0.00014209747314453125
-0.00014677643775939941
-0.00015121698379516602
-0.00015556812286376953
-0.0001599043607711792
-0.00016444921493530273
-0.00016917288303375244
-0.0001741647720336914
-0.00017945468425750732
-0.00018519163131713867
-0.00019115209579467773
-0.0001973956823348999
-0.0002038329839706421
-0.00021034479141235352
-0.00021696090698242188
-0.0002234429121017456
-0.0002297908067703247
-0.00023601949214935303
-0.00024205446243286133
-0.00024791061878204346
-0.0002535879611968994
-0.00025916099548339844
-0.00026451051235198975
-0.0002696514129638672
-0.00027447938919067383
-0.0002788454294204712
-0.0002825707197189331
-0.0002855360507965088
-0.00028742849826812744
-0.00028824806213378906
-0.0002877861261367798
-0.00028602778911590576
-0.0002830326557159424
-0.00027871131896972656
-0.00027342140674591064
-0.0002671480178833008
-0.00026012957096099854
-0.00025247037410736084
-0.00024433434009552
-0.0002359151840209961
-0.0002273470163345337
-0.0002186894416809082
-0.00020998716354370117
-0.00020144879817962646
-0.00019302964210510254
-0.00018490850925445557
-0.0001771301031112671
-0.00016967952251434326
-0.0001628100872039795
-0.00015656650066375732
-0.0001509338617324829
-0.00014609098434448242
-0.0001420527696609497
-0.00013887882232666016
-0.00013656914234161377
-0.0001351088285446167
-0.00013440847396850586
-0.00013457238674163818
-0.00013531744480133057
-0.00013671815395355225
-0.0001386106014251709
-0.00014081597328186035
-0.00014337897300720215
-0.00014610588550567627
-0.00014890730381011963
-0.000151708722114563
-0.0001544356346130371
-0.00015690922737121582
-0.00015923380851745605
-0.00016131997108459473
-0.00016318261623382568
-0.00016476213932037354
-0.0001662522554397583
-0.00016754865646362305
-0.00016893446445465088
-0.00017024576663970947
-0.00017182528972625732
-0.0001735985279083252
-0.0001757591962814331
-0.00017821788787841797
-0.00018110871315002441
-0.0001843273639678955
-0.00018790364265441895
-0.000191614031791687
-0.00019539892673492432
-0.00019918382167816162
-0.00020267069339752197
-0.00020572543144226074
-0.00020807981491088867
-0.00020968914031982422
-0.00021044909954071045
-0.00021010637283325195
-8.943676948547363e-05
-9.706616401672363e-05
-0.00010439753532409668
-0.00011129677295684814
-0.00011779367923736572
-0.00012370944023132324
-0.00012917816638946533
-0.00013424456119537354
-0.00013893842697143555
-0.00014337897300720215
-0.00014767050743103027
-0.000151902437210083
-0.00015623867511749268
-0.00016082823276519775
-0.00016561150550842285
-0.0001707524061203003
-0.00017623603343963623
-0.0001820772886276245
-0.0001882314682006836
-0.00019463896751403809
-0.0002011805772781372
-0.00020781159400939941
-0.00021441280841827393
-0.00022083520889282227
-0.00022709369659423828
-0.00023315846920013428
-0.0002390146255493164
-0.0002445727586746216
-0.0002500563859939575
-0.000255391001701355
-0.00026057660579681396
-0.000265657901763916
-0.00027048587799072266
-0.00027486681938171387
-0.00027880072593688965
-0.00028187036514282227
-0.0002840757369995117
-0.0002851039171218872
-0.00028489530086517334
-0.0002833753824234009
-0.0002804398536682129
-0.00027629733085632324
-0.0002709627151489258
-0.00026459991931915283
-0.0002574324607849121
-0.00024953484535217285
-0.00024111568927764893
-0.00023242831230163574
-0.0002234429121017456
-0.00021442770957946777
-0.00020545721054077148
-0.00019650161266326904
-0.00018784403800964355
-0.00017946958541870117
-0.0001713782548904419
-0.00016389787197113037
-0.00015686452388763428
-0.00015057623386383057
-0.0001449882984161377
-0.0001402348279953003
-0.00013640522956848145
-0.0001334547996520996
-0.00013141334056854248
-0.0001302659511566162
-0.0001300126314163208
-0.00013051927089691162
-0.00013175606727600098
-0.0001335442066192627
-0.00013583898544311523
-0.0001385807991027832
-0.00014156103134155273
-0.0001447051763534546
-0.00014784932136535645
-0.0001510530710220337
-0.00015406310558319092
-0.00015689432621002197
-0.00015947222709655762
-0.00016173720359802246
-0.0001637190580368042
-0.00016540288925170898
-0.0001668184995651245
-0.00016802549362182617
-0.00016921758651733398
-0.0001703202724456787
-0.00017154216766357422
-0.0001730024814605713
-0.00017477571964263916
-0.00017699599266052246
-0.0001796334981918335
-0.00018267333507537842
-0.0001862049102783203
-0.0001900196075439453
-0.00019402801990509033
-0.0001980811357498169
-0.00020198523998260498
-0.0002054274082183838
-0.00020845234394073486
-0.00021059811115264893
-0.00021184980869293213
-0.00021198391914367676
-9.000301361083984e-05
-9.706616401672363e-05
-0.00010378658771514893
-0.00011016428470611572
-0.0001160651445388794
-0.00012153387069702148
-0.00012665987014770508
-0.0001313537359237671
-0.0001358240842819214
-0.00014005601406097412
-0.0001442432403564453
-0.0001484304666519165
-0.00015273690223693848
-0.000157281756401062
-0.00016213953495025635
-0.00016739964485168457
-0.00017301738262176514
-0.00017896294593811035
-0.0001852661371231079
-0.00019177794456481934
-0.00019828975200653076
-0.00020498037338256836
-0.00021149218082427979
-0.00021779537200927734
-0.00022386014461517334
-0.00022964179515838623
-0.00023521482944488525
-0.00024050474166870117
-0.00024563074111938477
-0.0002506822347640991
-0.00025568902492523193
-0.0002606809139251709
-0.00026541948318481445
-0.0002699345350265503
-0.00027398765087127686
-0.0002773702144622803
-0.000279843807220459
-0.00028121471405029297
-0.00028124451637268066
-0.00027999281883239746
-0.0002773851156234741
-0.0002733767032623291
-0.00026810169219970703
-0.00026169419288635254
-0.0002543926239013672
-0.00024631619453430176
-0.00023765861988067627
-0.0002285689115524292
-0.00021927058696746826
-0.00020988285541534424
-0.00020042061805725098
-0.0001911371946334839
-0.00018206238746643066
-0.00017330050468444824
-0.0001649707555770874
-0.00015719234943389893
-0.00015000998973846436
-0.0001436173915863037
-0.00013796985149383545
-0.00013332068920135498
-0.00012953579425811768
-0.0001268237829208374
-0.00012508034706115723
-0.0001242309808731079
-0.0001243799924850464
-0.000125199556350708
-0.0001268535852432251
-0.00012908875942230225
-0.00013183057308197021
-0.00013491511344909668
-0.0001383274793624878
-0.0001418590545654297
-0.00014543533325195312
-0.00014901161193847656
-0.00015234947204589844
-0.000155523419380188
-0.00015839934349060059
-0.00016091763973236084
-0.0001630634069442749
-0.00016483664512634277
-0.0001663118600845337
-0.0001675337553024292
-0.0001684725284576416
-0.00016936659812927246
-0.00017039477825164795
-0.00017149746417999268
-0.00017298758029937744
-0.0001748502254486084
-0.00017717480659484863
-0.00018003582954406738
-0.00018349289894104004
-0.00018738210201263428
-0.00019156932830810547
-0.00019595026969909668
-0.0002002716064453125
-0.00020432472229003906
-0.00020791590213775635
-0.00021064281463623047
-0.00021253526210784912
-0.00021329522132873535
-9.039044380187988e-05
-9.681284427642822e-05
-0.00010298192501068115
-0.00010879337787628174
-0.00011418759822845459
-0.00011929869651794434
-0.00012408196926116943
-0.0001285076141357422
-0.00013275444507598877
-0.0001367330551147461
-0.0001408308744430542
-0.00014491379261016846
-0.00014923512935638428
-0.0001538395881652832
-0.00015875697135925293
-0.0001640617847442627
-0.0001697838306427002
-0.0001758188009262085
-0.00018218159675598145
-0.00018872320652008057
-0.00019527971744537354
-0.00020182132720947266
-0.0002081543207168579
-0.0002142190933227539
-0.0002200305461883545
-0.00022549927234649658
-0.00023062527179718018
-0.0002355724573135376
-0.00024034082889556885
-0.00024506449699401855
-0.0002498626708984375
-0.000254705548286438
-0.0002594590187072754
-0.00026407837867736816
-0.00026835501194000244
-0.0002720355987548828
-0.0002747774124145508
-0.00027649104595184326
-0.00027701258659362793
-0.00027611851692199707
-0.0002737492322921753
-0.000269964337348938
-0.0002648681402206421
-0.0002584904432296753
-0.00025109946727752686