# vtk DataFile Version 3.0
2D PINN Solution
ASCII
DATASET STRUCTURED_GRID
DIMENSIONS 100 100 1
POINTS 10000 float
-1.0 -1.0 0.0
-0.9797979797979798 -1.0 0.0
-0.9595959595959596 -1.0 0.0
-0.9393939393939394 -1.0 0.0
-0.9191919191919192 -1.0 0.0
-0.898989898989899 -1.0 0.0
-0.8787878787878788 -1.0 0.0
-0.8585858585858586 -1.0 0.0
-0.8383838383838383 -1.0 0.0
-0.8181818181818181 -1.0 0.0
-0.797979797979798 -1.0 0.0
-0.7777777777777778 -1.0 0.0
-0.7575757575757576 -1.0 0.0
-0.7373737373737373 -1.0 0.0
-0.7171717171717171 -1.0 0.0
-0.696969696969697 -1.0 0.0
-0.6767676767676767 -1.0 0.0
-0.6565656565656566 -1.0 0.0
-0.6363636363636364 -1.0 0.0
-0.6161616161616161 -1.0 0.0
-0.5959595959595959 -1.0 0.0
-0.5757575757575757 -1.0 0.0
-0.5555555555555556 -1.0 0.0
-0.5353535353535352 -1.0 0.0
-0.5151515151515151 -1.0 0.0
-0.4949494949494949 -1.0 0.0
-0.4747474747474747 -1.0 0.0
-0.4545454545454545 -1.0 0.0
-0.43434343434343425 -1.0 0.0
-0.41414141414141414 -1.0 0.0
-0.3939393939393939 -1.0 0.0
-0.3737373737373737 -1.0 0.0
-0.3535353535353535 -1.0 0.0
-0.33333333333333326 -1.0 0.0
-0.31313131313131304 -1.0 0.0
-0.2929292929292928 -1.0 0.0
-0.2727272727272727 -1.0 0.0
-0.2525252525252525 -1.0 0.0
-0.23232323232323226 -1.0 0.0
-0.21212121212121204 -1.0 0.0
-0.19191919191919182 -1.0 0.0
-0.1717171717171716 -1.0 0.0
-0.1515151515151515 -1.0 0.0
-0.13131313131313127 -1.0 0.0
-0.11111111111111105 -1.0 0.0
-0.09090909090909083 -1.0 0.0
-0.07070707070707061 -1.0 0.0
-0.050505050505050386 -1.0 0.0
-0.030303030303030276 -1.0 0.0
-0.010101010101010055 -1.0 0.0
0.010101010101010166 -1.0 0.0
0.030303030303030498 -1.0 0.0
0.05050505050505061 -1.0 0.0
0.07070707070707072 -1.0 0.0
0.09090909090909105 -1.0 0.0
0.11111111111111116 -1.0 0.0
0.1313131313131315 -1.0 0.0
0.1515151515151516 -1.0 0.0
0.1717171717171717 -1.0 0.0
0.19191919191919204 -1.0 0.0
0.21212121212121215 -1.0 0.0
0.2323232323232325 -1.0 0.0
0.2525252525252526 -1.0 0.0
0.27272727272727293 -1.0 0.0
0.29292929292929304 -1.0 0.0
0.31313131313131315 -1.0 0.0
0.3333333333333335 -1.0 0.0
0.3535353535353536 -1.0 0.0
0.3737373737373739 -1.0 0.0
0.39393939393939403 -1.0 0.0
0.41414141414141437 -1.0 0.0
0.4343434343434345 -1.0 0.0
0.4545454545454546 -1.0 0.0
0.4747474747474749 -1.0 0.0
0.49494949494949503 -1.0 0.0
0.5151515151515154 -1.0 0.0
0.5353535353535355 -1.0 0.0
0.5555555555555556 -1.0 0.0
0.5757575757575759 -1.0 0.0
0.595959595959596 -1.0 0.0
0.6161616161616164 -1.0 0.0
0.6363636363636365 -1.0 0.0
0.6565656565656568 -1.0 0.0
0.6767676767676769 -1.0 0.0
0.696969696969697 -1.0 0.0
0.7171717171717173 -1.0 0.0
0.7373737373737375 -1.0 0.0
0.7575757575757578 -1.0 0.0
0.7777777777777779 -1.0 0.0
0.7979797979797982 -1.0 0.0
0.8181818181818183 -1.0 0.0
0.8383838383838385 -1.0 0.0
0.8585858585858588 -1.0 0.0
0.8787878787878789 -1.0 0.0
0.8989898989898992 -1.0 0.0
0.9191919191919193 -1.0 0.0
0.9393939393939394 -1.0 0.0
0.9595959595959598 -1.0 0.0
0.9797979797979799 -1.0 0.0
1.0 -1.0 0.0
-1.0 -0.9797979797979798 0.0
-0.9797979797979798 -0.9797979797979798 0.0
-0.9595959595959596 -0.9797979797979798 0.0
-0.9393939393939394 -0.9797979797979798 0.0
-0.9191919191919192 -0.9797979797979798 0.0
-0.898989898989899 -0.9797979797979798 0.0
-0.8787878787878788 -0.9797979797979798 0.0
-0.8585858585858586 -0.9797979797979798 0.0
-0.8383838383838383 -0.9797979797979798 0.0
-0.8181818181818181 -0.9797979797979798 0.0
-0.797979797979798 -0.9797979797979798 0.0
-0.7777777777777778 -0.9797979797979798 0.0
-0.7575757575757576 -0.9797979797979798 0.0
-0.7373737373737373 -0.9797979797979798 0.0
-0.7171717171717171 -0.9797979797979798 0.0
-0.696969696969697 -0.9797979797979798 0.0
-0.6767676767676767 -0.9797979797979798 0.0
-0.6565656565656566 -0.9797979797979798 0.0
-0.6363636363636364 -0.9797979797979798 0.0
-0.6161616161616161 -0.9797979797979798 0.0
-0.5959595959595959 -0.9797979797979798 0.0
-0.5757575757575757 -0.9797979797979798 0.0
-0.5555555555555556 -0.9797979797979798 0.0
-0.5353535353535352 -0.9797979797979798 0.0
-0.5151515151515151 -0.9797979797979798 0.0
-0.4949494949494949 -0.9797979797979798 0.0
-0.4747474747474747 -0.9797979797979798 0.0
-0.4545454545454545 -0.9797979797979798 0.0
-0.43434343434343425 -0.9797979797979798 0.0
-0.41414141414141414 -0.9797979797979798 0.0
-0.3939393939393939 -0.9797979797979798 0.0
-0.3737373737373737 -0.9797979797979798 0.0
-0.3535353535353535 -0.9797979797979798 0.0
-0.33333333333333326 -0.9797979797979798 0.0
-0.31313131313131304 -0.9797979797979798 0.0
-0.2929292929292928 -0.9797979797979798 0.0
-0.2727272727272727 -0.9797979797979798 0.0
-0.2525252525252525 -0.9797979797979798 0.0
-0.23232323232323226 -0.9797979797979798 0.0
-0.21212121212121204 -0.9797979797979798 0.0
-0.19191919191919182 -0.9797979797979798 0.0
-0.1717171717171716 -0.9797979797979798 0.0
-0.1515151515151515 -0.9797979797979798 0.0
-0.13131313131313127 -0.9797979797979798 0.0
-0.11111111111111105 -0.9797979797979798 0.0
-0.09090909090909083 -0.9797979797979798 0.0
-0.07070707070707061 -0.9797979797979798 0.0
-0.050505050505050386 -0.9797979797979798 0.0
-0.030303030303030276 -0.9797979797979798 0.0
-0.010101010101010055 -0.9797979797979798 0.0
0.010101010101010166 -0.9797979797979798 0.0
0.030303030303030498 -0.9797979797979798 0.0
0.05050505050505061 -0.9797979797979798 0.0
0.07070707070707072 -0.9797979797979798 0.0
0.09090909090909105 -0.9797979797979798 0.0
0.11111111111111116 -0.9797979797979798 0.0
0.1313131313131315 -0.9797979797979798 0.0
0.1515151515151516 -0.9797979797979798 0.0
0.1717171717171717 -0.9797979797979798 0.0
0.19191919191919204 -0.9797979797979798 0.0
0.21212121212121215 -0.9797979797979798 0.0
0.2323232323232325 -0.9797979797979798 0.0
0.2525252525252526 -0.9797979797979798 0.0
0.27272727272727293 -0.9797979797979798 0.0
0.29292929292929304 -0.9797979797979798 0.0
0.31313131313131315 -0.9797979797979798 0.0
0.3333333333333335 -0.9797979797979798 0.0
0.3535353535353536 -0.9797979797979798 0.0
0.3737373737373739 -0.9797979797979798 0.0
0.39393939393939403 -0.9797979797979798 0.0
0.41414141414141437 -0.9797979797979798 0.0
0.4343434343434345 -0.9797979797979798 0.0
0.4545454545454546 -0.9797979797979798 0.0
0.4747474747474749 -0.9797979797979798 0.0
0.49494949494949503 -0.9797979797979798 0.0
0.5151515151515154 -0.9797979797979798 0.0
0.5353535353535355 -0.9797979797979798 0.0
0.5555555555555556 -0.9797979797979798 0.0
0.5757575757575759 -0.9797979797979798 0.0
0.595959595959596 -0.9797979797979798 0.0
0.6161616161616164 -0.9797979797979798 0.0
0.6363636363636365 -0.9797979797979798 0.0
0.6565656565656568 -0.9797979797979798 0.0
0.6767676767676769 -0.9797979797979798 0.0
0.696969696969697 -0.9797979797979798 0.0
0.7171717171717173 -0.9797979797979798 0.0
0.7373737373737375 -0.9797979797979798 0.0
0.7575757575757578 -0.9797979797979798 0.0
0.7777777777777779 -0.9797979797979798 0.0
0.7979797979797982 -0.9797979797979798 0.0
0.8181818181818183 -0.9797979797979798 0.0
0.8383838383838385 -0.9797979797979798 0.0
0.8585858585858588 -0.9797979797979798 0.0
0.8787878787878789 -0.9797979797979798 0.0
0.8989898989898992 -0.9797979797979798 0.0
0.9191919191919193 -0.9797979797979798 0.0
0.9393939393939394 -0.9797979797979798 0.0
0.9595959595959598 -0.9797979797979798 0.0
0.9797979797979799 -0.9797979797979798 0.0
1.0 -0.9797979797979798 0.0
-1.0 -0.9595959595959596 0.0
-0.9797979797979798 -0.9595959595959596 0.0
-0.9595959595959596 -0.9595959595959596 0.0
-0.9393939393939394 -0.9595959595959596 0.0
-0.9191919191919192 -0.9595959595959596 0.0
-0.898989898989899 -0.9595959595959596 0.0
-0.8787878787878788 -0.9595959595959596 0.0
-0.8585858585858586 -0.9595959595959596 0.0
-0.8383838383838383 -0.9595959595959596 0.0
-0.8181818181818181 -0.9595959595959596 0.0
-0.797979797979798 -0.9595959595959596 0.0
-0.7777777777777778 -0.9595959595959596 0.0
-0.7575757575757576 -0.9595959595959596 0.0
-0.7373737373737373 -0.9595959595959596 0.0
-0.7171717171717171 -0.9595959595959596 0.0
-0.696969696969697 -0.9595959595959596 0.0
-0.6767676767676767 -0.9595959595959596 0.0
-0.6565656565656566 -0.9595959595959596 0.0
-0.6363636363636364 -0.9595959595959596 0.0
-0.6161616161616161 -0.9595959595959596 0.0
-0.5959595959595959 -0.9595959595959596 0.0
-0.5757575757575757 -0.9595959595959596 0.0
-0.5555555555555556 -0.9595959595959596 0.0
-0.5353535353535352 -0.9595959595959596 0.0
-0.5151515151515151 -0.9595959595959596 0.0
-0.4949494949494949 -0.9595959595959596 0.0
-0.4747474747474747 -0.9595959595959596 0.0
-0.4545454545454545 -0.9595959595959596 0.0
-0.43434343434343425 -0.9595959595959596 0.0
-0.41414141414141414 -0.9595959595959596 0.0
-0.3939393939393939 -0.9595959595959596 0.0
-0.3737373737373737 -0.9595959595959596 0.0
-0.3535353535353535 -0.9595959595959596 0.0
-0.33333333333333326 -0.9595959595959596 0.0
-0.31313131313131304 -0.9595959595959596 0.0
-0.2929292929292928 -0.9595959595959596 0.0
-0.2727272727272727 -0.9595959595959596 0.0
-0.2525252525252525 -0.9595959595959596 0.0
-0.23232323232323226 -0.9595959595959596 0.0
-0.21212121212121204 -0.9595959595959596 0.0
-0.19191919191919182 -0.9595959595959596 0.0
-0.1717171717171716 -0.9595959595959596 0.0
-0.1515151515151515 -0.9595959595959596 0.0
-0.13131313131313127 -0.9595959595959596 0.0
-0.11111111111111105 -0.9595959595959596 0.0
-0.09090909090909083 -0.9595959595959596 0.0
-0.07070707070707061 -0.9595959595959596 0.0
-0.050505050505050386 -0.9595959595959596 0.0
-0.030303030303030276 -0.9595959595959596 0.0
-0.010101010101010055 -0.9595959595959596 0.0
0.010101010101010166 -0.9595959595959596 0.0
0.030303030303030498 -0.9595959595959596 0.0
0.05050505050505061 -0.9595959595959596 0.0
0.07070707070707072 -0.9595959595959596 0.0
0.09090909090909105 -0.9595959595959596 0.0
0.11111111111111116 -0.9595959595959596 0.0
0.1313131313131315 -0.9595959595959596 0.0
0.1515151515151516 -0.9595959595959596 0.0
0.1717171717171717 -0.9595959595959596 0.0
0.19191919191919204 -0.9595959595959596 0.0
0.21212121212121215 -0.9595959595959596 0.0
[...]
POINT_DATA 10000
SCALARS u float 1
LOOKUP_TABLE default
2.428889274597168e-06
-3.591179847717285e-06
-9.208917617797852e-06
-1.4454126358032227e-05
-1.9341707229614258e-05
-2.396106719970703e-05
-2.8386712074279785e-05
-3.2588839530944824e-05
-3.667175769805908e-05
-4.057586193084717e-05
-4.439055919647217e-05
-4.8100948333740234e-05
-5.1647424697875977e-05
-5.511939525604248e-05
-5.8457255363464355e-05
-6.155669689178467e-05
-6.458163261413574e-05
-6.736814975738525e-05
-6.990134716033936e-05
-7.228553295135498e-05
-7.449090480804443e-05
-7.647275924682617e-05
-7.824599742889404e-05
-7.998943328857422e-05
-8.1673264503479e-05
-8.331239223480225e-05
-8.490681648254395e-05
-8.666515350341797e-05
-8.846819400787354e-05
-9.028613567352295e-05
-9.232759475708008e-05
-9.435415267944336e-05
-9.657442569732666e-05
-9.88394021987915e-05
-0.00010116398334503174
-0.00010350346565246582
-0.00010591745376586914
-0.00010822713375091553
-0.000110626220703125
-0.00011289119720458984
-0.0001150667667388916
-0.00011721253395080566
-0.0001192241907119751
-0.00012116134166717529
-0.0001229792833328247
-0.00012479722499847412
-0.0001266002655029297
-0.00012837350368499756
-0.0001302957534790039
-0.00013233721256256104
-0.0001345127820968628
-0.00013694167137145996
-0.00013959407806396484
-0.0001424551010131836
-0.00014546513557434082
-0.00014860928058624268
-0.00015176832675933838
-0.00015497207641601562
-0.0001579970121383667
-0.00016076862812042236
-0.00016304850578308105
-0.000164911150932312
-0.00016623735427856445
-0.0001668781042098999
-0.0001668483018875122
-0.00016614794731140137
-0.00016477704048156738
-0.0001628398895263672
-0.00016039609909057617
-0.00015750527381896973
-0.00015431642532348633
-0.0001509636640548706
-0.0001475214958190918
-0.00014419853687286377
-0.00014102458953857422
-0.00013816356658935547
-0.00013561546802520752
-0.0001335740089416504
-0.00013203918933868408
-0.00013102591037750244
-0.0001306086778640747
-0.00013075768947601318
-0.00013153254985809326
-0.00013287365436553955
-0.00013484060764312744
-0.0001372992992401123
-0.0001402348279953003
-0.00014363229274749756
-0.00014732778072357178
-0.00015132129192352295
-0.00015547871589660645
-0.00015972554683685303
-0.00016392767429351807
-0.00016796588897705078
-0.00017167627811431885
-0.0001751333475112915
-0.00017808377742767334
-0.00018040835857391357
-0.0001821666955947876
-0.0001831352710723877
3.933906555175781e-06
-1.3709068298339844e-06
-6.318092346191406e-06
-1.0952353477478027e-05
-1.5228986740112305e-05
-1.9282102584838867e-05
-2.3156404495239258e-05
-2.689659595489502e-05
-3.053247928619385e-05
-3.4049153327941895e-05
-3.7610530853271484e-05
-4.1037797927856445e-05
-4.44948673248291e-05
-4.7832727432250977e-05
-5.1081180572509766e-05
-5.4255127906799316e-05
-5.7250261306762695e-05
-6.008148193359375e-05
-6.277859210968018e-05
-6.525218486785889e-05
-6.744265556335449e-05
-6.955862045288086e-05
-7.15404748916626e-05
-7.34478235244751e-05
-7.525086402893066e-05
-7.702410221099854e-05
-7.890164852142334e-05
-8.080899715423584e-05
-8.293986320495605e-05
-8.518993854522705e-05
-8.757412433624268e-05
-9.015202522277832e-05
-9.284913539886475e-05
-9.572505950927734e-05
-9.872019290924072e-05
-0.00010177493095397949
-0.0001048743724822998
-0.00010804831981658936
-0.0001112520694732666
-0.00011450052261352539
-0.00011771917343139648
-0.00012087821960449219
-0.00012396275997161865
-0.00012709200382232666
-0.00013017654418945312
-0.00013321638107299805
-0.00013625621795654297
-0.00013932585716247559
-0.00014241039752960205
-0.00014556944370269775
-0.00014881789684295654
-0.00015214085578918457
-0.00015547871589660645
-0.0001589357852935791
-0.00016239285469055176
-0.00016574561595916748
-0.00016899406909942627
-0.0001720339059829712
-0.00017473101615905762
-0.0001770108938217163
-0.00017884373664855957
-0.00018003582954406738
-0.0001805722713470459
-0.00018045306205749512
-0.00017964839935302734
-0.00017817318439483643
-0.0001761019229888916
-0.00017346441745758057
-0.00017036497592926025
-0.00016689300537109375
-0.00016319751739501953
-0.00015932321548461914
-0.00015550851821899414
-0.00015173852443695068
-0.0001481771469116211
-0.00014494359493255615
-0.00014203786849975586
-0.0001395195722579956
-0.00013750791549682617
-0.0001359879970550537
-0.0001350492238998413
-0.00013466179370880127
-0.00013490021228790283
-0.00013566017150878906
-0.0001370459794998169
-0.00013893842697143555
-0.00014135241508483887
-0.00014425814151763916
-0.00014753639698028564
-0.00015120208263397217
-0.00015501677989959717
-0.00015901029109954834
-0.0001630634069442749
-0.00016698241233825684
-0.0001707524061203003
-0.00017420947551727295
-0.00017715990543365479
-0.0001796633005142212
-0.00018152594566345215
-0.00018261373043060303
6.303191184997559e-06
1.6391277313232422e-06
-2.7418136596679688e-06
-6.720423698425293e-06
-1.0371208190917969e-05
-1.3917684555053711e-05
-1.7210841178894043e-05
-2.0489096641540527e-05
-2.3692846298217773e-05
-2.6911497116088867e-05
-3.0115246772766113e-05
-3.333389759063721e-05
-3.6582350730895996e-05
-3.986060619354248e-05
-4.3064355850219727e-05
-4.620850086212158e-05
-4.9233436584472656e-05
-5.21242618560791e-05
-5.482137203216553e-05
-5.7369470596313477e-05
-5.9723854064941406e-05
-6.195902824401855e-05
-6.397068500518799e-05
-6.587803363800049e-05
-6.775557994842529e-05
-6.969273090362549e-05
-7.170438766479492e-05
-7.383525371551514e-05
-7.617473602294922e-05
-7.869303226470947e-05
-8.147954940795898e-05
-8.448958396911621e-05
-8.767843246459961e-05
-9.107589721679688e-05
-9.468197822570801e-05
-9.836256504058838e-05
-0.00010226666927337646
-0.00010617077350616455
-0.00011020898818969727
-0.00011430680751800537
-0.00011843442916870117
-0.00012257695198059082
-0.0001268237829208374
-0.0001309812068939209
-0.00013527274131774902
-0.0001394897699356079
-0.00014372169971466064
-0.00014801323413848877
-0.00015226006507873535
-0.00015655159950256348
-0.00016070902347564697
-0.000164911150932312
-0.00016894936561584473
-0.0001729428768157959
-0.0001766979694366455
-0.00018021464347839355
-0.0001834183931350708
-0.0001862645149230957
-0.00018858909606933594
-0.0001903325319290161
-0.00019149482250213623
-0.00019197165966033936
-0.00019183754920959473
-0.00019100308418273926
-0.00018946826457977295
-0.00018736720085144043
-0.000184670090675354
-0.0001816004514694214
-0.00017799437046051025
-0.00017410516738891602
-0.00017011165618896484
-0.00016602873802185059
-0.00016193091869354248
-0.00015795230865478516
-0.00015419721603393555
-0.00015069544315338135
-0.00014761090278625488
-0.00014482438564300537
-0.0001424849033355713
-0.00014063715934753418
-0.0001392662525177002
-0.00013847649097442627
-0.00013819336891174316
-0.00013853609561920166
-0.00013935565948486328
-0.00014078617095947266
-0.00014266371726989746
-0.00014510750770568848
-0.00014793872833251953
-0.00015123188495635986
-0.0001547783613204956
-0.00015851855278015137
-0.00016239285469055176
-0.0001661926507949829
-0.00016994774341583252
-0.00017336010932922363
-0.00017637014389038086
-0.0001789480447769165
-0.0001809149980545044
-0.00018221139907836914
9.28342342376709e-06
5.245208740234375e-06
1.4901161193847656e-06
-1.8477439880371094e-06
-4.976987838745117e-06
-7.9423189163208e-06
-1.0788440704345703e-05
-1.3619661331176758e-05
-1.6376376152038574e-05
-1.9222497940063477e-05
-2.2158026695251465e-05
-2.5227665901184082e-05
-2.82973051071167e-05
-3.14861536026001e-05
-3.463029861450195e-05
-3.7804245948791504e-05
-4.088878631591797e-05
-4.38690185546875e-05
-4.665553569793701e-05
-4.92781400680542e-05
-5.1721930503845215e-05
-5.4001808166503906e-05
-5.607306957244873e-05
-5.8069825172424316e-05
-6.000697612762451e-05
-6.20037317276001e-05
-6.413459777832031e-05
-6.636977195739746e-05
-6.891787052154541e-05
-7.167458534240723e-05
-7.478892803192139e-05
-7.814168930053711e-05
-8.186697959899902e-05
-8.578598499298096e-05
-8.989870548248291e-05
-9.430944919586182e-05
-9.880959987640381e-05
-0.00010347366333007812
-0.00010825693607330322
-0.00011317431926727295
-0.00011818110942840576
-0.00012327730655670166
-0.0001285076141357422
-0.00013381242752075195
-0.00013910233974456787
-0.0001445561647415161
-0.00014995038509368896
-0.0001553744077682495
-0.0001607835292816162
-0.00016617774963378906
-0.0001713186502456665
-0.00017634034156799316
-0.00018112361431121826
-0.00018547475337982178
-0.00018949806690216064
-0.00019313395023345947
-0.00019612908363342285
-0.00019860267639160156
-0.00020043551921844482
-0.00020159780979156494
-0.00020207464694976807
-0.0002019256353378296
-0.00020100176334381104
-0.00019942224025726318
-0.00019726157188415527
-0.0001945793628692627
-0.00019134581089019775
-0.00018781423568725586
-0.00018386542797088623
-0.00017984211444854736
-0.00017559528350830078
-0.00017136335372924805
-0.0001672208309173584
-0.00016319751739501953
-0.00015932321548461914
-0.0001557767391204834
-0.00015248358249664307
-0.00014959275722503662
-0.00014708936214447021
-0.0001450181007385254
-0.00014337897300720215
-0.00014223158359527588
-0.00014157593250274658
-0.0001413971185684204
-0.0001418590545654297
-0.00014275312423706055
-0.00014425814151763916
-0.0001461803913116455
-0.00014860928058624268
-0.00015160441398620605
-0.000154837965965271
-0.00015832483768463135
-0.00016203522682189941
-0.00016574561595916748
-0.00016933679580688477
-0.00017273426055908203
-0.0001757889986038208
-0.000178411602973938
-0.00018046796321868896
-0.0001818239688873291
1.2785196304321289e-05
9.328126907348633e-06
6.198883056640625e-06
3.3974647521972656e-06
8.493661880493164e-07
-1.6242265701293945e-06
-3.978610038757324e-06
-6.332993507385254e-06
-8.821487426757812e-06
-1.1339783668518066e-05
-1.4036893844604492e-05
-1.6883015632629395e-05
-1.9848346710205078e-05
-2.2977590560913086e-05
-2.6166439056396484e-05
-2.9414892196655273e-05
-3.2588839530944824e-05
-3.571808338165283e-05
-3.871321678161621e-05
-4.141032695770264e-05
-4.3958425521850586e-05
-4.632771015167236e-05
-4.842877388000488e-05
-5.050003528594971e-05
-5.2541494369506836e-05
-5.456805229187012e-05
-5.6803226470947266e-05
-5.91278076171875e-05
-6.181001663208008e-05
-6.48796558380127e-05
-6.824731826782227e-05
-7.200241088867188e-05
-7.607042789459229e-05
-8.048117160797119e-05
-8.518993854522705e-05
-9.013712406158447e-05
-9.527802467346191e-05
-0.00010067224502563477
-0.0001061856746673584
-0.00011184811592102051
-0.00011768937110900879
-0.0001236647367477417
-0.0001297295093536377
-0.0001360476016998291
-0.0001424252986907959
-0.00014889240264892578
-0.00015547871589660645
-0.0001621544361114502
-0.00016874074935913086
-0.00017511844635009766
-0.00018137693405151367
-0.00018718838691711426
-0.00019262731075286865
-0.0001974254846572876
-0.00020164251327514648
-0.00020521879196166992
-0.00020797550678253174
-0.0002100914716720581
-0.00021129846572875977
-0.00021176040172576904
-0.00021149218082427979
-0.000210493803024292
-0.0002088099718093872
-0.00020651519298553467
-0.00020366907119750977
-0.00020039081573486328
-0.0001967400312423706
-0.00019280612468719482
-0.00018864870071411133
-0.0001844167709350586
-0.00018008053302764893
-0.00017580389976501465
-0.00017170608043670654
-0.00016762316226959229
-0.00016383826732635498
-0.0001602768898010254
-0.0001569986343383789
-0.00015403330326080322
-0.00015144050121307373
-0.00014919042587280273
-0.00014732778072357178
-0.0001459270715713501
-0.00014491379261016846
-0.00014443695545196533
-0.00014445185661315918
-0.00014500319957733154
-0.00014606118202209473
-0.00014762580394744873
-0.00014969706535339355
-0.00015220046043395996
-0.00015519559383392334
-0.00015844404697418213
-0.00016188621520996094
-0.00016544759273529053
-0.00016900897026062012
-0.00017240643501281738
-0.00017546117305755615
-0.0001780986785888672
-0.00018018484115600586
-0.00018166005611419678
1.683831214904785e-05
1.385807991027832e-05
1.1295080184936523e-05
9.000301361083984e-06
6.9141387939453125e-06
4.947185516357422e-06
3.0249357223510742e-06
1.1175870895385742e-06
-9.834766387939453e-07
-3.2782554626464844e-06
-5.796551704406738e-06
-8.508563041687012e-06
-1.1444091796875e-05
-1.4662742614746094e-05
-1.7955899238586426e-05
-2.1338462829589844e-05
-2.4706125259399414e-05
-2.802908420562744e-05
-3.120303153991699e-05
-3.415346145629883e-05
-3.692507743835449e-05
-3.93986701965332e-05
-4.166364669799805e-05
-4.373490810394287e-05
-4.585087299346924e-05
-4.7907233238220215e-05
-5.017220973968506e-05
-5.2601099014282227e-05
-5.549192428588867e-05
-5.862116813659668e-05
-6.225705146789551e-05
-6.632506847381592e-05
-7.081031799316406e-05
-7.557868957519531e-05
-8.080899715423584e-05
-8.626282215118408e-05
-9.199976921081543e-05
-9.794533252716064e-05
-0.00010409951210021973
-0.00011043250560760498
-0.00011698901653289795
-0.00012370944023132324
-0.0001306384801864624
-0.00013779103755950928
-0.00014512240886688232
-0.00015273690223693848
-0.0001605004072189331
-0.00016832351684570312
-0.00017617642879486084
-0.00018377602100372314
-0.00019106268882751465
-0.00019788742065429688
-0.00020399689674377441
-0.00020934641361236572
-0.00021377205848693848
-0.00021725893020629883
-0.0002197474241256714
-0.00022126734256744385
-0.0002218484878540039
-0.00022147595882415771
-0.0002203434705734253
-0.00021849572658538818
-0.00021585822105407715
-0.00021284818649291992
-0.00020933151245117188
-0.00020544230937957764
-0.00020134449005126953
-0.0001970529556274414
-0.00019271671772003174
-0.00018830597400665283
-0.00018391013145446777
-0.00017961859703063965
-0.00017558038234710693
-0.0001716017723083496
-0.0001678764820098877
-0.00016438961029052734
-0.0001611858606338501
-0.0001582503318786621
-0.00015558302402496338
-0.00015325844287872314
-0.0001512467861175537
-0.00014966726303100586
-0.0001484006643295288
-0.00014761090278625488
-0.0001472681760787964
-0.0001474320888519287
-0.0001481473445892334
-0.0001493692398071289
-0.00015109777450561523
-0.00015331804752349854
-0.00015594065189361572
-0.0001589655876159668
-0.00016224384307861328
-0.0001656264066696167
-0.0001690983772277832
-0.00017240643501281738
-0.0001754462718963623
-0.00017808377742767334
-0.0001802295446395874
-0.00018174946308135986
2.123415470123291e-05
1.8730759620666504e-05
1.6629695892333984e-05
1.4841556549072266e-05
1.3202428817749023e-05
1.1742115020751953e-05
1.017749309539795e-05
8.568167686462402e-06
6.750226020812988e-06
4.6193599700927734e-06
2.2649765014648438e-06
-4.023313522338867e-07
-3.382563591003418e-06
-6.690621376037598e-06
-1.0222196578979492e-05
-1.3872981071472168e-05
-1.7523765563964844e-05
-2.117455005645752e-05
-2.467632293701172e-05
-2.7954578399658203e-05
-3.097951412200928e-05
-3.361701965332031e-05
-3.603100776672363e-05
-3.8251280784606934e-05
-4.0337443351745605e-05
-4.242360591888428e-05
-4.468858242034912e-05
-4.716217517852783e-05
-5.0008296966552734e-05
-5.3241848945617676e-05
-5.6996941566467285e-05
-6.116926670074463e-05
-6.583333015441895e-05
-7.097423076629639e-05
-7.644295692443848e-05
-8.222460746765137e-05
-8.83936882019043e-05
-9.475648403167725e-05
-0.00010141730308532715
-0.00010822713375091553
-0.00011532008647918701
-0.0001226961612701416
-0.00013031065464019775
-0.00013825297355651855
-0.00014659762382507324
-0.00015527009963989258
-0.0001642853021621704
-0.00017349421977996826
-0.00018268823623657227
-0.00019183754920959473
-0.00020048022270202637
-0.00020836293697357178
-0.00021539628505706787
-0.00022138655185699463
-0.00022611021995544434
-0.0002295076847076416
-0.0002316683530807495
-0.00023262202739715576
-0.0002324134111404419
-0.0002311617136001587
-0.00022901594638824463
-0.00022616982460021973
-0.00022272765636444092
-0.0002187788486480713
-0.0002145320177078247
-0.00021010637283325195
-0.00020545721054077148
-0.00020080804824829102
-0.00019621849060058594
-0.00019165873527526855
-0.00018727779388427734
-0.00018298625946044922
-0.00017893314361572266
-0.00017511844635009766
-0.00017151236534118652
-0.00016811490058898926
-0.0001650005578994751
-0.0001621246337890625
-0.00015944242477416992
-0.00015710294246673584
-0.00015503168106079102
-0.00015333294868469238
-0.0001518726348876953
-0.00015085935592651367
-0.00015029311180114746
-0.00015017390251159668
-0.00015053153038024902
-0.00015145540237426758
-0.00015285611152648926
-0.00015476346015930176
-0.00015714764595031738
-0.0001599341630935669
-0.00016298890113830566
-0.0001662522554397583
-0.00016951560974121094
-0.00017276406288146973
-0.00017580389976501465
-0.00017847120761871338
-0.00018055737018585205
-0.00018212199211120605
2.5957822799682617e-05
2.3946166038513184e-05
2.2232532501220703e-05
2.0906329154968262e-05
1.96993350982666e-05
1.8537044525146484e-05
1.7344951629638672e-05
1.5988945960998535e-05
1.4349818229675293e-05
1.2412667274475098e-05
1.0073184967041016e-05
7.316470146179199e-06
4.202127456665039e-06
6.258487701416016e-07
-3.159046173095703e-06
-7.241964340209961e-06
-1.1354684829711914e-05
-1.5422701835632324e-05
-1.932680606842041e-05
-2.300739288330078e-05
-2.633035182952881e-05
-2.9265880584716797e-05
-3.185868263244629e-05
-3.415346145629883e-05
-3.6209821701049805e-05
-3.819167613983154e-05
-4.032254219055176e-05
-4.260241985321045e-05
-4.51505184173584e-05
-4.824995994567871e-05
-5.175173282623291e-05
-5.577504634857178e-05
-6.0245394706726074e-05
-6.523728370666504e-05
-7.06017017364502e-05
-7.639825344085693e-05
-8.259713649749756e-05
-8.910894393920898e-05
-9.585916996002197e-05
-0.00010305643081665039
-0.00011043250560760498
-0.00011830031871795654
-0.000126570463180542
-0.0001353621482849121
-0.00014469027519226074
-0.00015470385551452637
-0.00016526877880096436
-0.00017622113227844238
-0.00018733739852905273
-0.00019834935665130615
-0.00020879507064819336
-0.00021836161613464355
-0.00022670626640319824
-0.00023350119590759277
-0.0002387017011642456
-0.0002422630786895752
-0.000244140625
-0.00024440884590148926
-0.0002434253692626953
-0.00024114549160003662
-0.00023800134658813477
-0.00023408234119415283
-0.00022958219051361084
-0.00022470951080322266
-0.0002196282148361206
-0.00021442770957946777
-0.00020927190780639648
-0.00020416080951690674
-0.00019928812980651855
-0.00019450485706329346
-0.0001900196075439453
-0.0001857280731201172
-0.00018173456192016602
-0.00017799437046051025
-0.00017449259757995605
-0.00017121434211730957
-0.00016823410987854004
-0.00016546249389648438
-0.00016297399997711182
-0.00016067922115325928
-0.00015863776206970215
-0.00015686452388763428
-0.00015535950660705566
-0.00015419721603393555
-0.00015342235565185547
-0.00015306472778320312
-0.0001532435417175293
-0.0001538693904876709
-0.00015501677989959717
-0.00015661120414733887
-0.00015880167484283447
-0.00016136467456817627
-0.00016422569751739502
-0.00016734004020690918
-0.00017054378986358643
-0.00017367303371429443
-0.00017660856246948242
-0.00017914175987243652
-0.00018131732940673828
-0.0001827329397201538
3.102421760559082e-05
2.931058406829834e-05
2.804398536682129e-05
2.70158052444458e-05
2.6181340217590332e-05
2.536177635192871e-05
2.4363398551940918e-05
2.321600914001465e-05
2.1710991859436035e-05
1.9863247871398926e-05
1.7464160919189453e-05
1.449882984161377e-05
1.1086463928222656e-05
7.167458534240723e-06
2.9206275939941406e-06
-1.6242265701293945e-06
-6.243586540222168e-06
-1.093745231628418e-05
-1.5422701835632324e-05
-1.958012580871582e-05
-2.3245811462402344e-05
-2.6464462280273438e-05
-2.9146671295166016e-05
-3.1381845474243164e-05
-3.3214688301086426e-05
-3.485381603240967e-05
-3.641843795776367e-05
-3.8057565689086914e-05
-3.9950013160705566e-05
-4.215538501739502e-05
-4.4718384742736816e-05
-4.7788023948669434e-05
-5.1274895668029785e-05
-5.53131103515625e-05
-5.9798359870910645e-05
-6.476044654846191e-05
-7.024407386779785e-05
-7.621943950653076e-05
-8.277595043182373e-05
-8.982419967651367e-05
-9.745359420776367e-05
-0.00010576844215393066
-0.00011482834815979004
-0.00012482702732086182
-0.00013577938079833984
-0.00014778971672058105
-0.00016066431999206543
-0.00017432868480682373
-0.00018833577632904053