# vtk DataFile Version 3.0
2D PINN Solution
ASCII
DATASET STRUCTURED_GRID
DIMENSIONS 100 100 1
POINTS 10000 float
-1.0 -1.0 0.0
-0.9797979797979798 -1.0 0.0
-0.9595959595959596 -1.0 0.0
-0.9393939393939394 -1.0 0.0
-0.9191919191919192 -1.0 0.0
-0.898989898989899 -1.0 0.0
-0.8787878787878788 -1.0 0.0
-0.8585858585858586 -1.0 0.0
-0.8383838383838383 -1.0 0.0
-0.8181818181818181 -1.0 0.0
-0.797979797979798 -1.0 0.0
-0.7777777777777778 -1.0 0.0
-0.7575757575757576 -1.0 0.0
-0.7373737373737373 -1.0 0.0
-0.7171717171717171 -1.0 0.0
-0.696969696969697 -1.0 0.0
-0.6767676767676767 -1.0 0.0
-0.6565656565656566 -1.0 0.0
-0.6363636363636364 -1.0 0.0
-0.6161616161616161 -1.0 0.0
-0.5959595959595959 -1.0 0.0
-0.5757575757575757 -1.0 0.0
-0.5555555555555556 -1.0 0.0
-0.5353535353535352 -1.0 0.0
-0.5151515151515151 -1.0 0.0
-0.4949494949494949 -1.0 0.0
-0.4747474747474747 -1.0 0.0
-0.4545454545454545 -1.0 0.0
-0.43434343434343425 -1.0 0.0
-0.41414141414141414 -1.0 0.0
-0.3939393939393939 -1.0 0.0
-0.3737373737373737 -1.0 0.0
-0.3535353535353535 -1.0 0.0
-0.33333333333333326 -1.0 0.0
-0.31313131313131304 -1.0 0.0
-0.2929292929292928 -1.0 0.0
-0.2727272727272727 -1.0 0.0
-0.2525252525252525 -1.0 0.0
-0.23232323232323226 -1.0 0.0
-0.21212121212121204 -1.0 0.0
-0.19191919191919182 -1.0 0.0
-0.1717171717171716 -1.0 0.0
-0.1515151515151515 -1.0 0.0
-0.13131313131313127 -1.0 0.0
-0.11111111111111105 -1.0 0.0
-0.09090909090909083 -1.0 0.0
-0.07070707070707061 -1.0 0.0
-0.050505050505050386 -1.0 0.0
-0.030303030303030276 -1.0 0.0
-0.010101010101010055 -1.0 0.0
0.010101010101010166 -1.0 0.0
0.030303030303030498 -1.0 0.0
0.05050505050505061 -1.0 0.0
0.07070707070707072 -1.0 0.0
0.09090909090909105 -1.0 0.0
0.11111111111111116 -1.0 0.0
0.1313131313131315 -1.0 0.0
0.1515151515151516 -1.0 0.0
0.1717171717171717 -1.0 0.0
0.19191919191919204 -1.0 0.0
0.21212121212121215 -1.0 0.0
0.2323232323232325 -1.0 0.0
0.2525252525252526 -1.0 0.0
0.27272727272727293 -1.0 0.0
0.29292929292929304 -1.0 0.0
0.31313131313131315 -1.0 0.0
0.3333333333333335 -1.0 0.0
0.3535353535353536 -1.0 0.0
0.3737373737373739 -1.0 0.0
0.39393939393939403 -1.0 0.0
0.41414141414141437 -1.0 0.0
0.4343434343434345 -1.0 0.0
0.4545454545454546 -1.0 0.0
0.4747474747474749 -1.0 0.0
0.49494949494949503 -1.0 0.0
0.5151515151515154 -1.0 0.0
0.5353535353535355 -1.0 0.0
0.5555555555555556 -1.0 0.0
0.5757575757575759 -1.0 0.0
0.595959595959596 -1.0 0.0
0.6161616161616164 -1.0 0.0
0.6363636363636365 -1.0 0.0
0.6565656565656568 -1.0 0.0
0.6767676767676769 -1.0 0.0
0.696969696969697 -1.0 0.0
0.7171717171717173 -1.0 0.0
0.7373737373737375 -1.0 0.0
0.7575757575757578 -1.0 0.0
0.7777777777777779 -1.0 0.0
0.7979797979797982 -1.0 0.0
0.8181818181818183 -1.0 0.0
0.8383838383838385 -1.0 0.0
0.8585858585858588 -1.0 0.0
0.8787878787878789 -1.0 0.0
0.8989898989898992 -1.0 0.0
0.9191919191919193 -1.0 0.0
0.9393939393939394 -1.0 0.0
0.9595959595959598 -1.0 0.0
0.9797979797979799 -1.0 0.0
1.0 -1.0 0.0
-1.0 -0.9797979797979798 0.0
-0.9797979797979798 -0.9797979797979798 0.0
-0.9595959595959596 -0.9797979797979798 0.0
-0.9393939393939394 -0.9797979797979798 0.0
-0.9191919191919192 -0.9797979797979798 0.0
-0.898989898989899 -0.9797979797979798 0.0
-0.8787878787878788 -0.9797979797979798 0.0
-0.8585858585858586 -0.9797979797979798 0.0
-0.8383838383838383 -0.9797979797979798 0.0
-0.8181818181818181 -0.9797979797979798 0.0
-0.797979797979798 -0.9797979797979798 0.0
-0.7777777777777778 -0.9797979797979798 0.0
-0.7575757575757576 -0.9797979797979798 0.0
-0.7373737373737373 -0.9797979797979798 0.0
-0.7171717171717171 -0.9797979797979798 0.0
-0.696969696969697 -0.9797979797979798 0.0
-0.6767676767676767 -0.9797979797979798 0.0
-0.6565656565656566 -0.9797979797979798 0.0
-0.6363636363636364 -0.9797979797979798 0.0
-0.6161616161616161 -0.9797979797979798 0.0
-0.5959595959595959 -0.9797979797979798 0.0
-0.5757575757575757 -0.9797979797979798 0.0
-0.5555555555555556 -0.9797979797979798 0.0
-0.5353535353535352 -0.9797979797979798 0.0
-0.5151515151515151 -0.9797979797979798 0.0
-0.4949494949494949 -0.9797979797979798 0.0
-0.4747474747474747 -0.9797979797979798 0.0
-0.4545454545454545 -0.9797979797979798 0.0
-0.43434343434343425 -0.9797979797979798 0.0
-0.41414141414141414 -0.9797979797979798 0.0
-0.3939393939393939 -0.9797979797979798 0.0
-0.3737373737373737 -0.9797979797979798 0.0
-0.3535353535353535 -0.9797979797979798 0.0
-0.33333333333333326 -0.9797979797979798 0.0
-0.31313131313131304 -0.9797979797979798 0.0
-0.2929292929292928 -0.9797979797979798 0.0
-0.2727272727272727 -0.9797979797979798 0.0
-0.2525252525252525 -0.9797979797979798 0.0
-0.23232323232323226 -0.9797979797979798 0.0
-0.21212121212121204 -0.9797979797979798 0.0
-0.19191919191919182 -0.9797979797979798 0.0
-0.1717171717171716 -0.9797979797979798 0.0
-0.1515151515151515 -0.9797979797979798 0.0
-0.13131313131313127 -0.9797979797979798 0.0
-0.11111111111111105 -0.9797979797979798 0.0
-0.09090909090909083 -0.9797979797979798 0.0
-0.07070707070707061 -0.9797979797979798 0.0
-0.050505050505050386 -0.9797979797979798 0.0
-0.030303030303030276 -0.9797979797979798 0.0
-0.010101010101010055 -0.9797979797979798 0.0
0.010101010101010166 -0.9797979797979798 0.0
0.030303030303030498 -0.9797979797979798 0.0
0.05050505050505061 -0.9797979797979798 0.0
0.07070707070707072 -0.9797979797979798 0.0
0.09090909090909105 -0.9797979797979798 0.0
0.11111111111111116 -0.9797979797979798 0.0
0.1313131313131315 -0.9797979797979798 0.0
0.1515151515151516 -0.9797979797979798 0.0
0.1717171717171717 -0.9797979797979798 0.0
0.19191919191919204 -0.9797979797979798 0.0
0.21212121212121215 -0.9797979797979798 0.0
0.2323232323232325 -0.9797979797979798 0.0
0.2525252525252526 -0.9797979797979798 0.0
0.27272727272727293 -0.9797979797979798 0.0
0.29292929292929304 -0.9797979797979798 0.0
0.31313131313131315 -0.9797979797979798 0.0
0.3333333333333335 -0.9797979797979798 0.0
0.3535353535353536 -0.9797979797979798 0.0
0.3737373737373739 -0.9797979797979798 0.0
0.39393939393939403 -0.9797979797979798 0.0
0.41414141414141437 -0.9797979797979798 0.0
0.4343434343434345 -0.9797979797979798 0.0
0.4545454545454546 -0.9797979797979798 0.0
0.4747474747474749 -0.9797979797979798 0.0
0.49494949494949503 -0.9797979797979798 0.0
0.5151515151515154 -0.9797979797979798 0.0
0.5353535353535355 -0.9797979797979798 0.0
0.5555555555555556 -0.9797979797979798 0.0
0.5757575757575759 -0.9797979797979798 0.0
0.595959595959596 -0.9797979797979798 0.0
0.6161616161616164 -0.9797979797979798 0.0
0.6363636363636365 -0.9797979797979798 0.0
0.6565656565656568 -0.9797979797979798 0.0
0.6767676767676769 -0.9797979797979798 0.0
0.696969696969697 -0.9797979797979798 0.0
0.7171717171717173 -0.9797979797979798 0.0
0.7373737373737375 -0.9797979797979798 0.0
0.7575757575757578 -0.9797979797979798 0.0
0.7777777777777779 -0.9797979797979798 0.0
0.7979797979797982 -0.9797979797979798 0.0
0.8181818181818183 -0.9797979797979798 0.0
0.8383838383838385 -0.9797979797979798 0.0
0.8585858585858588 -0.9797979797979798 0.0
0.8787878787878789 -0.9797979797979798 0.0
0.8989898989898992 -0.9797979797979798 0.0
0.9191919191919193 -0.9797979797979798 0.0
0.9393939393939394 -0.9797979797979798 0.0
0.9595959595959598 -0.9797979797979798 0.0
0.9797979797979799 -0.9797979797979798 0.0
1.0 -0.9797979797979798 0.0
-1.0 -0.9595959595959596 0.0
-0.9797979797979798 -0.9595959595959596 0.0
-0.9595959595959596 -0.9595959595959596 0.0
-0.9393939393939394 -0.9595959595959596 0.0
-0.9191919191919192 -0.9595959595959596 0.0
-0.898989898989899 -0.9595959595959596 0.0
-0.8787878787878788 -0.9595959595959596 0.0
-0.8585858585858586 -0.9595959595959596 0.0
-0.8383838383838383 -0.9595959595959596 0.0
-0.8181818181818181 -0.9595959595959596 0.0
-0.797979797979798 -0.9595959595959596 0.0
-0.7777777777777778 -0.9595959595959596 0.0
-0.7575757575757576 -0.9595959595959596 0.0
-0.7373737373737373 -0.9595959595959596 0.0
-0.7171717171717171 -0.9595959595959596 0.0
-0.696969696969697 -0.9595959595959596 0.0
-0.6767676767676767 -0.9595959595959596 0.0
-0.6565656565656566 -0.9595959595959596 0.0
-0.6363636363636364 -0.9595959595959596 0.0
-0.6161616161616161 -0.9595959595959596 0.0
-0.5959595959595959 -0.9595959595959596 0.0
-0.5757575757575757 -0.9595959595959596 0.0
-0.5555555555555556 -0.9595959595959596 0.0
-0.5353535353535352 -0.9595959595959596 0.0
-0.5151515151515151 -0.9595959595959596 0.0
-0.4949494949494949 -0.9595959595959596 0.0
-0.4747474747474747 -0.9595959595959596 0.0
-0.4545454545454545 -0.9595959595959596 0.0
-0.43434343434343425 -0.9595959595959596 0.0
-0.41414141414141414 -0.9595959595959596 0.0
-0.3939393939393939 -0.9595959595959596 0.0
-0.3737373737373737 -0.9595959595959596 0.0
-0.3535353535353535 -0.9595959595959596 0.0
-0.33333333333333326 -0.9595959595959596 0.0
-0.31313131313131304 -0.9595959595959596 0.0
-0.2929292929292928 -0.9595959595959596 0.0
-0.2727272727272727 -0.9595959595959596 0.0
-0.2525252525252525 -0.9595959595959596 0.0
-0.23232323232323226 -0.9595959595959596 0.0
-0.21212121212121204 -0.9595959595959596 0.0
-0.19191919191919182 -0.9595959595959596 0.0
-0.1717171717171716 -0.9595959595959596 0.0
-0.1515151515151515 -0.9595959595959596 0.0
-0.13131313131313127 -0.9595959595959596 0.0
-0.11111111111111105 -0.9595959595959596 0.0
-0.09090909090909083 -0.9595959595959596 0.0
-0.07070707070707061 -0.9595959595959596 0.0
-0.050505050505050386 -0.9595959595959596 0.0
-0.030303030303030276 -0.9595959595959596 0.0
-0.010101010101010055 -0.9595959595959596 0.0
0.010101010101010166 -0.9595959595959596 0.0
0.030303030303030498 -0.9595959595959596 0.0
0.05050505050505061 -0.9595959595959596 0.0
0.07070707070707072 -0.9595959595959596 0.0
0.09090909090909105 -0.9595959595959596 0.0
0.11111111111111116 -0.9595959595959596 0.0
0.1313131313131315 -0.9595959595959596 0.0
0.1515151515151516 -0.9595959595959596 0.0
0.1717171717171717 -0.9595959595959596 0.0
0.19191919191919204 -0.9595959595959596 0.0
0.21212121212121215 -0.9595959595959596 0.0
[...]
POINT_DATA 10000
SCALARS u float 1
LOOKUP_TABLE default
-0.00010065734386444092
-0.00011292099952697754
-0.00012415647506713867
-0.00013425946235656738
-0.00014354288578033447
-0.00015208125114440918
-0.00016036629676818848
-0.00016869604587554932
-0.0001773238182067871
-0.00018647313117980957
-0.0001962035894393921
-0.0002065598964691162
-0.00021739304065704346
-0.00022836029529571533
-0.00023937225341796875
-0.00024993717670440674
-0.0002597421407699585
-0.00026872754096984863
-0.00027643144130706787
-0.00028267502784729004
-0.00028733909130096436
-0.00029033422470092773
-0.0002916306257247925
-0.00029133260250091553
-0.0002895146608352661
-0.0002862513065338135
-0.0002818852663040161
-0.00027646124362945557
-0.00027020275592803955
-0.00026345252990722656
-0.0002562403678894043
-0.0002488046884536743
-0.00024139881134033203
-0.00023414194583892822
-0.00022709369659423828
-0.00022038817405700684
-0.00021398067474365234
-0.00020791590213775635
-0.00020216405391693115
-0.00019653141498565674
-0.00019106268882751465
-0.00018551945686340332
-0.0001798868179321289
-0.00017398595809936523
-0.00016783177852630615
-0.00016129016876220703
-0.00015448033809661865
-0.0001472383737564087
-0.00013974308967590332
-0.00013199448585510254
-0.00012424588203430176
-0.00011664628982543945
-0.00010927021503448486
-0.00010246038436889648
-9.626150131225586e-05
-9.077787399291992e-05
-8.624792098999023e-05
-8.253753185272217e-05
-7.969141006469727e-05
-7.770955562591553e-05
-7.638335227966309e-05
-7.574260234832764e-05
-7.539987564086914e-05
-7.545948028564453e-05
-7.568299770355225e-05
-7.60108232498169e-05
-7.63237476348877e-05
-7.66366720199585e-05
-7.686018943786621e-05
-7.700920104980469e-05
-7.711350917816162e-05
-7.720291614532471e-05
-7.724761962890625e-05
-7.729232311248779e-05
-7.736682891845703e-05
-7.747113704681396e-05
-7.756054401397705e-05
-7.762014865875244e-05
-7.770955562591553e-05
-7.772445678710938e-05
-7.766485214233398e-05
-7.753074169158936e-05
-7.735192775726318e-05
-7.705390453338623e-05
-7.665157318115234e-05
-7.627904415130615e-05
-7.587671279907227e-05
-7.547438144683838e-05
-7.522106170654297e-05
-7.511675357818604e-05
-7.528066635131836e-05
-7.577240467071533e-05
-7.662177085876465e-05
-7.794797420501709e-05
-7.981061935424805e-05
-8.223950862884521e-05
-8.526444435119629e-05
-8.895993232727051e-05
-9.332597255706787e-05
-9.822845458984375e-05
-0.00010964274406433105
-0.00012223422527313232
-0.00013343989849090576
-0.00014337897300720215
-0.00015234947204589844
-0.00016060471534729004
-0.000168532133102417
-0.0001765042543411255
-0.00018480420112609863
-0.0001935213804244995
-0.00020287930965423584
-0.00021284818649291992
-0.0002231001853942871
-0.0002336055040359497
-0.00024384260177612305
-0.00025372207164764404
-0.0002628415822982788
-0.0002709925174713135
-0.00027798116207122803
-0.00028358399868011475
-0.00028771162033081055
-0.00029036402702331543
-0.00029149651527404785
-0.0002911388874053955
-0.0002893805503845215
-0.00028634071350097656
-0.00028210878372192383
-0.00027683377265930176
-0.0002707242965698242
-0.0002639889717102051
-0.0002567172050476074
-0.00024928152561187744
-0.00024169683456420898
-0.00023427605628967285
-0.0002269446849822998
-0.0002200305461883545
-0.00021339952945709229
-0.00020709633827209473
-0.00020107626914978027
-0.00019524991512298584
-0.0001894831657409668
-0.00018374621868133545
-0.00017781555652618408
-0.00017170608043670654
-0.0001652538776397705
-0.0001583695411682129
-0.00015115737915039062
-0.00014348328113555908
-0.00013560056686401367
-0.000127449631690979
-0.00011917948722839355
-0.00011111795902252197
-0.0001033097505569458
-9.609758853912354e-05
-8.952617645263672e-05
-8.372962474822998e-05
-7.893145084381104e-05
-7.510185241699219e-05
-7.225573062896729e-05
-7.02589750289917e-05
-6.908178329467773e-05
-6.856024265289307e-05
-6.853044033050537e-05
-6.884336471557617e-05
-6.933510303497314e-05
-6.988644599914551e-05
-7.045269012451172e-05
-7.0914626121521e-05
-7.128715515136719e-05
-7.152557373046875e-05
-7.170438766479492e-05
-7.174909114837646e-05
-7.186830043792725e-05
-7.186830043792725e-05
-7.191300392150879e-05
-7.198750972747803e-05
-7.203221321105957e-05
-7.200241088867188e-05
-7.206201553344727e-05
-7.197260856628418e-05
-7.189810276031494e-05
-7.162988185882568e-05
-7.127225399017334e-05
-7.078051567077637e-05
-7.012486457824707e-05
-6.945431232452393e-05
-6.872415542602539e-05
-6.787478923797607e-05
-6.712973117828369e-05
-6.650388240814209e-05
-6.598234176635742e-05
-6.57886266708374e-05
-6.592273712158203e-05
-6.645917892456055e-05
-6.748735904693604e-05
-6.908178329467773e-05
-7.140636444091797e-05
-7.434189319610596e-05
-7.796287536621094e-05
-8.237361907958984e-05
-0.00011964142322540283
-0.00013224780559539795
-0.00014328956604003906
-0.0001529902219772339
-0.00016157329082489014
-0.00016930699348449707
-0.00017665326595306396
-0.00018393993377685547
-0.00019152462482452393
-0.0001996159553527832
-0.00020836293697357178
-0.00021757185459136963
-0.00022712349891662598
-0.0002367943525314331
-0.000246390700340271
-0.00025548040866851807
-0.000263899564743042
-0.00027136504650115967
-0.00027780234813690186
-0.00028292834758758545
-0.00028677284717559814
-0.0002892911434173584
-0.0002904534339904785
-0.00029015541076660156
-0.00028865039348602295
-0.00028583407402038574
-0.0002818554639816284
-0.00027689337730407715
-0.0002709627151489258
-0.0002643316984176636
-0.00025713443756103516
-0.00024959444999694824
-0.00024193525314331055
-0.0002342909574508667
-0.00022681057453155518
-0.00021967291831970215
-0.00021277368068695068
-0.0002062469720840454
-0.00020009279251098633
-0.00019396841526031494
-0.00018806755542755127
-0.00018206238746643066
-0.00017595291137695312
-0.00016957521438598633
-0.0001628398895263672
-0.0001556873321533203
-0.00014813244342803955
-0.00014010071754455566
-0.00013171136379241943
-0.00012314319610595703
-0.00011453032493591309
-0.00010596215724945068
-9.770691394805908e-05
-9.004771709442139e-05
-8.307397365570068e-05
-7.705390453338623e-05
-7.203221321105957e-05
-6.80685043334961e-05
-6.517767906188965e-05
-6.3285231590271e-05
-6.227195262908936e-05
-6.194412708282471e-05
-6.216764450073242e-05
-6.280839443206787e-05
-6.355345249176025e-05
-6.444752216339111e-05
-6.51925802230835e-05
-6.575882434844971e-05
-6.629526615142822e-05
-6.660819053649902e-05
-6.686151027679443e-05
-6.693601608276367e-05
-6.696581840515137e-05
-6.698071956634521e-05
-6.698071956634521e-05
-6.701052188873291e-05
-6.695091724395752e-05
-6.699562072753906e-05
-6.695091724395752e-05
-6.684660911560059e-05
-6.665289402008057e-05
-6.638467311859131e-05
-6.587803363800049e-05
-6.531178951263428e-05
-6.449222564697266e-05
-6.35385513305664e-05
-6.249547004699707e-05
-6.133317947387695e-05
-6.020069122314453e-05
-5.9023499488830566e-05
-5.793571472167969e-05
-5.708634853363037e-05
-5.652010440826416e-05
-5.6296586990356445e-05
-5.6549906730651855e-05
-5.735456943511963e-05
-5.8785080909729004e-05
-6.0886144638061523e-05
-6.376206874847412e-05
-6.733834743499756e-05
-0.0001300126314163208
-0.00014247000217437744
-0.0001532435417175293
-0.0001624971628189087
-0.00017048418521881104
-0.0001776367425918579
-0.00018426775932312012
-0.00019080936908721924
-0.00019749999046325684
-0.00020475685596466064
-0.00021255016326904297
-0.00022086501121520996
-0.0002295374870300293
-0.0002384185791015625
-0.00024712085723876953
-0.00025551021099090576
-0.0002632439136505127
-0.00027011334896087646
-0.0002761632204055786
-0.0002810359001159668
-0.000284731388092041
-0.00028724968433380127
-0.00028862059116363525
-0.00028856098651885986
-0.00028733909130096436
-0.00028492510318756104
-0.0002813190221786499
-0.0002765953540802002
-0.0002709627151489258
-0.00026448071002960205
-0.0002573728561401367
-0.0002498328685760498
-0.00024211406707763672
-0.00023436546325683594
-0.00022670626640319824
-0.0002193152904510498
-0.0002123117446899414
-0.00020554661750793457
-0.00019913911819458008
-0.00019288063049316406
-0.00018677115440368652
-0.0001805722713470459
-0.0001741945743560791
-0.00016763806343078613
-0.0001605898141860962
-0.00015316903591156006
-0.00014531612396240234
-0.0001370161771774292
-0.00012832880020141602
-0.00011931359767913818
-0.00011022388935089111
-0.00010120868682861328
-9.255111217498779e-05
-8.442997932434082e-05
-7.712841033935547e-05
-7.079541683197021e-05
-6.555020809173584e-05
-6.148219108581543e-05
-5.862116813659668e-05
-5.6803226470947266e-05
-5.5924057960510254e-05
-5.587935447692871e-05
-5.640089511871338e-05
-5.726516246795654e-05
-5.836784839630127e-05
-5.951523780822754e-05
-6.051361560821533e-05
-6.136298179626465e-05
-6.195902824401855e-05
-6.23464584350586e-05
-6.258487701416016e-05
-6.2599778175354e-05
-6.264448165893555e-05
-6.254017353057861e-05
-6.251037120819092e-05
-6.246566772460938e-05
-6.245076656341553e-05
-6.236135959625244e-05
-6.230175495147705e-05
-6.219744682312012e-05
-6.201863288879395e-05
-6.160140037536621e-05
-6.107985973358154e-05
-6.03795051574707e-05
-5.942583084106445e-05
-5.836784839630127e-05
-5.710124969482422e-05
-5.564093589782715e-05
-5.415081977844238e-05
-5.258619785308838e-05
-5.111098289489746e-05
-4.9695372581481934e-05
-4.851818084716797e-05
-4.7579407691955566e-05
-4.7087669372558594e-05
-4.710257053375244e-05
-4.763901233673096e-05
-4.8860907554626465e-05
-5.08725643157959e-05
-5.364418029785156e-05
-0.00014021992683410645
-0.00015242397785186768
-0.0001627802848815918
-0.00017157196998596191
-0.00017893314361572266
-0.000185355544090271
-0.00019118189811706543
-0.0001968294382095337
-0.00020264089107513428
-0.00020882487297058105
-0.00021561980247497559
-0.00022295117378234863
-0.00023064017295837402
-0.00023858249187469482
-0.00024646520614624023
-0.0002540796995162964
-0.0002612471580505371
-0.0002676844596862793
-0.0002733767032623291
-0.0002780705690383911
-0.00028179585933685303
-0.00028449296951293945
-0.0002860426902770996
-0.00028640031814575195
-0.00028555095195770264
-0.00028355419635772705
-0.0002803504467010498
-0.0002760887145996094
-0.0002706795930862427
-0.00026442110538482666
-0.00025750696659088135
-0.00024996697902679443
-0.00024221837520599365
-0.0002343505620956421
-0.0002266019582748413
-0.00021912157535552979
-0.00021184980869293213
-0.00020489096641540527
-0.00019834935665130615
-0.00019191205501556396
-0.00018556416034698486
-0.00017918646335601807
-0.0001726895570755005
-0.0001658797264099121
-0.00015869736671447754
-0.000151023268699646
-0.00014290213584899902
-0.0001342296600341797
-0.0001251697540283203
-0.00011582672595977783
-0.00010631978511810303
-9.690225124359131e-05
-8.784234523773193e-05
-7.939338684082031e-05
-7.165968418121338e-05
-6.501376628875732e-05
-5.9545040130615234e-05
-5.537271499633789e-05
-5.2481889724731445e-05
-5.078315734863281e-05
-5.0127506256103516e-05
-5.033612251281738e-05
-5.1215291023254395e-05
-5.239248275756836e-05
-5.385279655456543e-05
-5.523860454559326e-05
-5.646049976348877e-05
-5.747377872467041e-05
-5.8203935623168945e-05
-5.866587162017822e-05
-5.8844685554504395e-05
-5.887448787689209e-05
-5.879998207092285e-05
-5.8650970458984375e-05
-5.8516860008239746e-05
-5.835294723510742e-05
-5.830824375152588e-05
-5.817413330078125e-05
-5.8084726333618164e-05
-5.7891011238098145e-05
-5.766749382019043e-05
-5.728006362915039e-05
-5.6743621826171875e-05
-5.59389591217041e-05
-5.4970383644104004e-05
-5.373358726501465e-05
-5.2303075790405273e-05
-5.0768256187438965e-05
-4.89652156829834e-05
-4.716217517852783e-05
-4.522502422332764e-05
-4.337728023529053e-05
-4.169344902038574e-05
-4.023313522338867e-05
-3.90857458114624e-05
-3.834068775177002e-05
-3.8117170333862305e-05
-3.851950168609619e-05
-3.965198993682861e-05
-4.151463508605957e-05
-0.00015003979206085205
-0.00016179680824279785
-0.00017164647579193115
-0.00017981231212615967
-0.00018659234046936035
-0.0001922696828842163
-0.00019730627536773682
-0.00020204484462738037
-0.00020688772201538086
-0.00021201372146606445
-0.0002177208662033081
-0.00022394955158233643
-0.00023065507411956787
-0.00023759901523590088
-0.00024472177028656006
-0.0002516210079193115
-0.00025819242000579834
-0.00026425719261169434
-0.0002697110176086426
-0.00027438998222351074
-0.0002781897783279419
-0.0002810359001159668
-0.0002829134464263916
-0.0002837181091308594
-0.00028336048126220703
-0.0002818554639816284
-0.00027911365032196045
-0.00027523934841156006
-0.0002702474594116211
-0.00026425719261169434
-0.0002575218677520752
-0.0002500861883163452
-0.00024232268333435059
-0.00023443996906280518
-0.00022654235363006592
-0.00021886825561523438
-0.00021144747734069824
-0.00020438432693481445
-0.00019763410091400146
-0.0001909881830215454
-0.00018450617790222168
-0.00017799437046051025
-0.00017133355140686035
-0.00016435980796813965
-0.00015698373317718506
-0.0001491457223892212
-0.00014072656631469727
-0.00013178586959838867
-0.0001224428415298462
-0.00011278688907623291
-0.00010290741920471191
-9.308755397796631e-05
-8.362531661987305e-05
-7.475912570953369e-05
-6.669759750366211e-05
-5.9798359870910645e-05
-5.4135918617248535e-05
-4.9814581871032715e-05
-4.6893954277038574e-05
-4.5299530029296875e-05
-4.486739635467529e-05
-4.538893699645996e-05
-4.6566128730773926e-05
-4.811584949493408e-05
-4.985928535461426e-05
-5.157291889190674e-05
-5.3063035011291504e-05
-5.424022674560547e-05
-5.505979061126709e-05
-5.558133125305176e-05
-5.570054054260254e-05
-5.568563938140869e-05
-5.549192428588867e-05
-5.5223703384399414e-05
-5.492568016052246e-05
-5.476176738739014e-05
-5.4508447647094727e-05
-5.4329633712768555e-05
-5.422532558441162e-05
-5.398690700531006e-05
-5.367398262023926e-05
-5.333125591278076e-05
-5.272030830383301e-05
-5.1915645599365234e-05
-5.0887465476989746e-05
-4.9591064453125e-05
-4.811584949493408e-05
-4.64022159576416e-05
-4.445016384124756e-05
-4.2378902435302734e-05
-4.026293754577637e-05
-3.814697265625e-05
-3.600120544433594e-05
-3.407895565032959e-05
-3.241002559661865e-05
-3.103911876678467e-05
-3.0115246772766113e-05
-2.975761890411377e-05
-3.013014793395996e-05
-3.1113624572753906e-05
-0.0001592189073562622
-0.0001703500747680664
-0.00017967820167541504
-0.0001872926950454712
-0.00019343197345733643
-0.00019837915897369385
-0.00020265579223632812
-0.00020645558834075928
-0.00021030008792877197
-0.00021442770957946777
-0.00021901726722717285
-0.000224187970161438
-0.00022983551025390625
-0.0002358555793762207
-0.00024214386940002441
-0.0002483576536178589
-0.00025443732738494873
-0.0002601742744445801
-0.00026541948318481445
-0.0002700686454772949
-0.0002740323543548584
-0.0002771914005279541
-0.00027942657470703125
-0.000280722975730896
-0.00028087198734283447
-0.0002798736095428467
-0.00027763843536376953
-0.00027421116828918457
-0.0002695918083190918
-0.00026394426822662354
-0.00025735795497894287
-0.0002500861883163452
-0.00024242699146270752
-0.00023443996906280518
-0.00022651255130767822
-0.00021867454051971436
-0.00021116435527801514
-0.00020392239093780518
-0.00019696354866027832
-0.00019019842147827148
-0.00018356740474700928
-0.00017692148685455322
-0.00017008185386657715
-0.00016297399997711182
-0.00015544891357421875
-0.0001474320888519287
-0.0001389235258102417
-0.0001297593116760254
-0.0001201331615447998
-0.00011020898818969727
-0.00010000169277191162
-8.983910083770752e-05
-7.994472980499268e-05
-7.069110870361328e-05
-6.23464584350586e-05
-5.5089592933654785e-05
-4.918873310089111e-05
-4.48077917098999e-05
-4.1812658309936523e-05
-4.03672456741333e-05
-4.0143728256225586e-05
-4.0903687477111816e-05
-4.240870475769043e-05
-4.4465065002441406e-05
-4.653632640838623e-05
-4.8533082008361816e-05
-5.0261616706848145e-05
-5.161762237548828e-05
-5.2481889724731445e-05
-5.297362804412842e-05
-5.316734313964844e-05
-5.294382572174072e-05
-5.269050598144531e-05
-5.225837230682373e-05
-5.182623863220215e-05
-5.14984130859375e-05
-5.112588405609131e-05
-5.091726779937744e-05
-5.0693750381469727e-05
-5.0395727157592773e-05
-5.005300045013428e-05
-4.963576793670654e-05
-4.8995018005371094e-05
-4.8220157623291016e-05
-4.716217517852783e-05
-4.5880675315856934e-05
-4.4286251068115234e-05
-4.2498111724853516e-05
-4.051625728607178e-05
-3.828108310699463e-05
-3.600120544433594e-05
-3.3661723136901855e-05
-3.1247735023498535e-05
-2.8952956199645996e-05
-2.6881694793701172e-05
-2.5019049644470215e-05
-2.358853816986084e-05
-2.2590160369873047e-05
-2.2232532501220703e-05
-2.2545456886291504e-05
-0.0001675337553024292
-0.00017812848091125488
-0.0001868605613708496
-0.00019375979900360107
-0.00019937753677368164
-0.00020362436771392822
-0.00020715594291687012
-0.00021019577980041504
-0.00021311640739440918
-0.00021617114543914795
-0.00021977722644805908
-0.00022380053997039795
-0.00022844970226287842
-0.00023353099822998047
-0.00023895502090454102
-0.00024455785751342773
-0.0002501755952835083
-0.00025559961795806885
-0.0002607107162475586
-0.00026538968086242676
-0.00026954710483551025
-0.00027301907539367676
-0.0002756863832473755
-0.0002773851156234741
-0.0002781599760055542
-0.0002776235342025757
-0.00027589499950408936
-0.00027295947074890137
-0.00026883184909820557
-0.0002634674310684204
-0.00025716423988342285
-0.0002500861883163452
-0.00024245679378509521
-0.00023449957370758057
-0.00022648274898529053
-0.00021855533123016357
-0.00021097064018249512
-0.0002035200595855713
-0.00019641220569610596
-0.0001894831657409668
-0.0001827329397201538
-0.00017596781253814697
-0.0001690387725830078
-0.00016179680824279785
-0.00015416741371154785
-0.00014601647853851318
-0.00013737380504608154
-0.00012806057929992676
-0.000118255615234375
-0.00010798871517181396
-9.751319885253906e-05
-8.703768253326416e-05
-7.687509059906006e-05
-6.723403930664062e-05
-5.848705768585205e-05
-5.094707012176514e-05
-4.48375940322876e-05
-4.0277838706970215e-05
-3.731250762939453e-05
-3.5956501960754395e-05
-3.591179847717285e-05
-3.7029385566711426e-05
-3.889203071594238e-05
-4.126131534576416e-05
-4.3720006942749023e-05
-4.604458808898926e-05
-4.8041343688964844e-05
-4.9561262130737305e-05
-5.054473876953125e-05
-5.103647708892822e-05
-5.1155686378479004e-05
-5.085766315460205e-05
-5.033612251281738e-05
-4.9754977226257324e-05
-4.915893077850342e-05
-4.863739013671875e-05
-4.811584949493408e-05
-4.775822162628174e-05
-4.7400593757629395e-05
-4.7087669372558594e-05
-4.6700239181518555e-05
-4.6193599700927734e-05
-4.556775093078613e-05
-4.474818706512451e-05
-4.366040229797363e-05
-4.2319297790527344e-05
-4.073977470397949e-05
-3.892183303833008e-05
-3.688037395477295e-05
-3.4615397453308105e-05
-3.223121166229248e-05
-2.969801425933838e-05
-2.720952033996582e-05
-2.4706125259399414e-05
-2.232193946838379e-05
-2.014636993408203e-05
-1.831352710723877e-05
-1.691281795501709e-05
-1.5944242477416992e-05
-1.5661120414733887e-05
-0.00017502903938293457
-0.00018493831157684326
-0.00019308924674987793
-0.00019945204257965088
-0.0002043694257736206
-0.0002081543207168579
-0.00021092593669891357
-0.00021317601203918457
-0.00021530687808990479
-0.0002174675464630127
-0.00021992623805999756
-0.00022305548191070557
-0.0002266913652420044
-0.00023087859153747559
-0.00023555755615234375
-0.00024053454399108887
-0.0002456158399581909
-0.00025078654289245605
-0.00025579333305358887
-0.0002605170011520386
-0.00026488304138183594
-0.0002687126398086548
-0.0002717524766921997
-0.00027398765087127686
-0.0002751648426055908
-0.00027523934841156006
-0.00027404725551605225
-0.00027160346508026123
-0.0002678185701370239
-0.0002629011869430542
-0.0002568960189819336
-0.000250011682510376
-0.00024242699146270752
-0.0002345442771911621
-0.00022652745246887207
-0.00021852552890777588
-0.00021070241928100586
-0.00020319223403930664
-0.00019590556621551514
-0.0001888275146484375
-0.00018195807933807373
-0.00017508864402770996
-0.00016804039478302002
-0.0001607835292816162
-0.00015303492546081543
-0.00014483928680419922
-0.00013609230518341064
-0.00012670457363128662
-0.00011672079563140869
-0.00010630488395690918
-9.557604789733887e-05