# vtk DataFile Version 3.0
2D PINN Solution
ASCII
DATASET STRUCTURED_GRID
DIMENSIONS 100 100 1
POINTS 10000 float
-1.0 -1.0 0.0
-0.9797979797979798 -1.0 0.0
-0.9595959595959596 -1.0 0.0
-0.9393939393939394 -1.0 0.0
-0.9191919191919192 -1.0 0.0
-0.898989898989899 -1.0 0.0
-0.8787878787878788 -1.0 0.0
-0.8585858585858586 -1.0 0.0
-0.8383838383838383 -1.0 0.0
-0.8181818181818181 -1.0 0.0
-0.797979797979798 -1.0 0.0
-0.7777777777777778 -1.0 0.0
-0.7575757575757576 -1.0 0.0
-0.7373737373737373 -1.0 0.0
-0.7171717171717171 -1.0 0.0
-0.696969696969697 -1.0 0.0
-0.6767676767676767 -1.0 0.0
-0.6565656565656566 -1.0 0.0
-0.6363636363636364 -1.0 0.0
-0.6161616161616161 -1.0 0.0
-0.5959595959595959 -1.0 0.0
-0.5757575757575757 -1.0 0.0
-0.5555555555555556 -1.0 0.0
-0.5353535353535352 -1.0 0.0
-0.5151515151515151 -1.0 0.0
-0.4949494949494949 -1.0 0.0
-0.4747474747474747 -1.0 0.0
-0.4545454545454545 -1.0 0.0
-0.43434343434343425 -1.0 0.0
-0.41414141414141414 -1.0 0.0
-0.3939393939393939 -1.0 0.0
-0.3737373737373737 -1.0 0.0
-0.3535353535353535 -1.0 0.0
-0.33333333333333326 -1.0 0.0
-0.31313131313131304 -1.0 0.0
-0.2929292929292928 -1.0 0.0
-0.2727272727272727 -1.0 0.0
-0.2525252525252525 -1.0 0.0
-0.23232323232323226 -1.0 0.0
-0.21212121212121204 -1.0 0.0
-0.19191919191919182 -1.0 0.0
-0.1717171717171716 -1.0 0.0
-0.1515151515151515 -1.0 0.0
-0.13131313131313127 -1.0 0.0
-0.11111111111111105 -1.0 0.0
-0.09090909090909083 -1.0 0.0
-0.07070707070707061 -1.0 0.0
-0.050505050505050386 -1.0 0.0
-0.030303030303030276 -1.0 0.0
-0.010101010101010055 -1.0 0.0
0.010101010101010166 -1.0 0.0
0.030303030303030498 -1.0 0.0
0.05050505050505061 -1.0 0.0
0.07070707070707072 -1.0 0.0
0.09090909090909105 -1.0 0.0
0.11111111111111116 -1.0 0.0
0.1313131313131315 -1.0 0.0
0.1515151515151516 -1.0 0.0
0.1717171717171717 -1.0 0.0
0.19191919191919204 -1.0 0.0
0.21212121212121215 -1.0 0.0
0.2323232323232325 -1.0 0.0
0.2525252525252526 -1.0 0.0
0.27272727272727293 -1.0 0.0
0.29292929292929304 -1.0 0.0
0.31313131313131315 -1.0 0.0
0.3333333333333335 -1.0 0.0
0.3535353535353536 -1.0 0.0
0.3737373737373739 -1.0 0.0
0.39393939393939403 -1.0 0.0
0.41414141414141437 -1.0 0.0
0.4343434343434345 -1.0 0.0
0.4545454545454546 -1.0 0.0
0.4747474747474749 -1.0 0.0
0.49494949494949503 -1.0 0.0
0.5151515151515154 -1.0 0.0
0.5353535353535355 -1.0 0.0
0.5555555555555556 -1.0 0.0
0.5757575757575759 -1.0 0.0
0.595959595959596 -1.0 0.0
0.6161616161616164 -1.0 0.0
0.6363636363636365 -1.0 0.0
0.6565656565656568 -1.0 0.0
0.6767676767676769 -1.0 0.0
0.696969696969697 -1.0 0.0
0.7171717171717173 -1.0 0.0
0.7373737373737375 -1.0 0.0
0.7575757575757578 -1.0 0.0
0.7777777777777779 -1.0 0.0
0.7979797979797982 -1.0 0.0
0.8181818181818183 -1.0 0.0
0.8383838383838385 -1.0 0.0
0.8585858585858588 -1.0 0.0
0.8787878787878789 -1.0 0.0
0.8989898989898992 -1.0 0.0
0.9191919191919193 -1.0 0.0
0.9393939393939394 -1.0 0.0
0.9595959595959598 -1.0 0.0
0.9797979797979799 -1.0 0.0
1.0 -1.0 0.0
-1.0 -0.9797979797979798 0.0
-0.9797979797979798 -0.9797979797979798 0.0
-0.9595959595959596 -0.9797979797979798 0.0
-0.9393939393939394 -0.9797979797979798 0.0
-0.9191919191919192 -0.9797979797979798 0.0
-0.898989898989899 -0.9797979797979798 0.0
-0.8787878787878788 -0.9797979797979798 0.0
-0.8585858585858586 -0.9797979797979798 0.0
-0.8383838383838383 -0.9797979797979798 0.0
-0.8181818181818181 -0.9797979797979798 0.0
-0.797979797979798 -0.9797979797979798 0.0
-0.7777777777777778 -0.9797979797979798 0.0
-0.7575757575757576 -0.9797979797979798 0.0
-0.7373737373737373 -0.9797979797979798 0.0
-0.7171717171717171 -0.9797979797979798 0.0
-0.696969696969697 -0.9797979797979798 0.0
-0.6767676767676767 -0.9797979797979798 0.0
-0.6565656565656566 -0.9797979797979798 0.0
-0.6363636363636364 -0.9797979797979798 0.0
-0.6161616161616161 -0.9797979797979798 0.0
-0.5959595959595959 -0.9797979797979798 0.0
-0.5757575757575757 -0.9797979797979798 0.0
-0.5555555555555556 -0.9797979797979798 0.0
-0.5353535353535352 -0.9797979797979798 0.0
-0.5151515151515151 -0.9797979797979798 0.0
-0.4949494949494949 -0.9797979797979798 0.0
-0.4747474747474747 -0.9797979797979798 0.0
-0.4545454545454545 -0.9797979797979798 0.0
-0.43434343434343425 -0.9797979797979798 0.0
-0.41414141414141414 -0.9797979797979798 0.0
-0.3939393939393939 -0.9797979797979798 0.0
-0.3737373737373737 -0.9797979797979798 0.0
-0.3535353535353535 -0.9797979797979798 0.0
-0.33333333333333326 -0.9797979797979798 0.0
-0.31313131313131304 -0.9797979797979798 0.0
-0.2929292929292928 -0.9797979797979798 0.0
-0.2727272727272727 -0.9797979797979798 0.0
-0.2525252525252525 -0.9797979797979798 0.0
-0.23232323232323226 -0.9797979797979798 0.0
-0.21212121212121204 -0.9797979797979798 0.0
-0.19191919191919182 -0.9797979797979798 0.0
-0.1717171717171716 -0.9797979797979798 0.0
-0.1515151515151515 -0.9797979797979798 0.0
-0.13131313131313127 -0.9797979797979798 0.0
-0.11111111111111105 -0.9797979797979798 0.0
-0.09090909090909083 -0.9797979797979798 0.0
-0.07070707070707061 -0.9797979797979798 0.0
-0.050505050505050386 -0.9797979797979798 0.0
-0.030303030303030276 -0.9797979797979798 0.0
-0.010101010101010055 -0.9797979797979798 0.0
0.010101010101010166 -0.9797979797979798 0.0
0.030303030303030498 -0.9797979797979798 0.0
0.05050505050505061 -0.9797979797979798 0.0
0.07070707070707072 -0.9797979797979798 0.0
0.09090909090909105 -0.9797979797979798 0.0
0.11111111111111116 -0.9797979797979798 0.0
0.1313131313131315 -0.9797979797979798 0.0
0.1515151515151516 -0.9797979797979798 0.0
0.1717171717171717 -0.9797979797979798 0.0
0.19191919191919204 -0.9797979797979798 0.0
0.21212121212121215 -0.9797979797979798 0.0
0.2323232323232325 -0.9797979797979798 0.0
0.2525252525252526 -0.9797979797979798 0.0
0.27272727272727293 -0.9797979797979798 0.0
0.29292929292929304 -0.9797979797979798 0.0
0.31313131313131315 -0.9797979797979798 0.0
0.3333333333333335 -0.9797979797979798 0.0
0.3535353535353536 -0.9797979797979798 0.0
0.3737373737373739 -0.9797979797979798 0.0
0.39393939393939403 -0.9797979797979798 0.0
0.41414141414141437 -0.9797979797979798 0.0
0.4343434343434345 -0.9797979797979798 0.0
0.4545454545454546 -0.9797979797979798 0.0
0.4747474747474749 -0.9797979797979798 0.0
0.49494949494949503 -0.9797979797979798 0.0
0.5151515151515154 -0.9797979797979798 0.0
0.5353535353535355 -0.9797979797979798 0.0
0.5555555555555556 -0.9797979797979798 0.0
0.5757575757575759 -0.9797979797979798 0.0
0.595959595959596 -0.9797979797979798 0.0
0.6161616161616164 -0.9797979797979798 0.0
0.6363636363636365 -0.9797979797979798 0.0
0.6565656565656568 -0.9797979797979798 0.0
0.6767676767676769 -0.9797979797979798 0.0
0.696969696969697 -0.9797979797979798 0.0
0.7171717171717173 -0.9797979797979798 0.0
0.7373737373737375 -0.9797979797979798 0.0
0.7575757575757578 -0.9797979797979798 0.0
0.7777777777777779 -0.9797979797979798 0.0
0.7979797979797982 -0.9797979797979798 0.0
0.8181818181818183 -0.9797979797979798 0.0
0.8383838383838385 -0.9797979797979798 0.0
0.8585858585858588 -0.9797979797979798 0.0
0.8787878787878789 -0.9797979797979798 0.0
0.8989898989898992 -0.9797979797979798 0.0
0.9191919191919193 -0.9797979797979798 0.0
0.9393939393939394 -0.9797979797979798 0.0
0.9595959595959598 -0.9797979797979798 0.0
0.9797979797979799 -0.9797979797979798 0.0
1.0 -0.9797979797979798 0.0
-1.0 -0.9595959595959596 0.0
-0.9797979797979798 -0.9595959595959596 0.0
-0.9595959595959596 -0.9595959595959596 0.0
-0.9393939393939394 -0.9595959595959596 0.0
-0.9191919191919192 -0.9595959595959596 0.0
-0.898989898989899 -0.9595959595959596 0.0
-0.8787878787878788 -0.9595959595959596 0.0
-0.8585858585858586 -0.9595959595959596 0.0
-0.8383838383838383 -0.9595959595959596 0.0
-0.8181818181818181 -0.9595959595959596 0.0
-0.797979797979798 -0.9595959595959596 0.0
-0.7777777777777778 -0.9595959595959596 0.0
-0.7575757575757576 -0.9595959595959596 0.0
-0.7373737373737373 -0.9595959595959596 0.0
-0.7171717171717171 -0.9595959595959596 0.0
-0.696969696969697 -0.9595959595959596 0.0
-0.6767676767676767 -0.9595959595959596 0.0
-0.6565656565656566 -0.9595959595959596 0.0
-0.6363636363636364 -0.9595959595959596 0.0
-0.6161616161616161 -0.9595959595959596 0.0
-0.5959595959595959 -0.9595959595959596 0.0
-0.5757575757575757 -0.9595959595959596 0.0
-0.5555555555555556 -0.9595959595959596 0.0
-0.5353535353535352 -0.9595959595959596 0.0
-0.5151515151515151 -0.9595959595959596 0.0
-0.4949494949494949 -0.9595959595959596 0.0
-0.4747474747474747 -0.9595959595959596 0.0
-0.4545454545454545 -0.9595959595959596 0.0
-0.43434343434343425 -0.9595959595959596 0.0
-0.41414141414141414 -0.9595959595959596 0.0
-0.3939393939393939 -0.9595959595959596 0.0
-0.3737373737373737 -0.9595959595959596 0.0
-0.3535353535353535 -0.9595959595959596 0.0
-0.33333333333333326 -0.9595959595959596 0.0
-0.31313131313131304 -0.9595959595959596 0.0
-0.2929292929292928 -0.9595959595959596 0.0
-0.2727272727272727 -0.9595959595959596 0.0
-0.2525252525252525 -0.9595959595959596 0.0
-0.23232323232323226 -0.9595959595959596 0.0
-0.21212121212121204 -0.9595959595959596 0.0
-0.19191919191919182 -0.9595959595959596 0.0
-0.1717171717171716 -0.9595959595959596 0.0
-0.1515151515151515 -0.9595959595959596 0.0
-0.13131313131313127 -0.9595959595959596 0.0
-0.11111111111111105 -0.9595959595959596 0.0
-0.09090909090909083 -0.9595959595959596 0.0
-0.07070707070707061 -0.9595959595959596 0.0
-0.050505050505050386 -0.9595959595959596 0.0
-0.030303030303030276 -0.9595959595959596 0.0
-0.010101010101010055 -0.9595959595959596 0.0
0.010101010101010166 -0.9595959595959596 0.0
0.030303030303030498 -0.9595959595959596 0.0
0.05050505050505061 -0.9595959595959596 0.0
0.07070707070707072 -0.9595959595959596 0.0
0.09090909090909105 -0.9595959595959596 0.0
0.11111111111111116 -0.9595959595959596 0.0
0.1313131313131315 -0.9595959595959596 0.0
0.1515151515151516 -0.9595959595959596 0.0
0.1717171717171717 -0.9595959595959596 0.0
0.19191919191919204 -0.9595959595959596 0.0
0.21212121212121215 -0.9595959595959596 0.0
[...]
POINT_DATA 10000
SCALARS u float 1
LOOKUP_TABLE default
-9.241700172424316e-05
-0.00010609626770019531
-0.0001185387372970581
-0.00012974441051483154
-0.00013981759548187256
-0.00014910101890563965
-0.00015801191329956055
-0.0001668781042098999
-0.00017605721950531006
-0.0001857280731201172
-0.00019603967666625977
-0.0002069026231765747
-0.00021818280220031738
-0.00022964179515838623
-0.00024093687534332275
-0.0002517402172088623
-0.0002617090940475464
-0.0002705007791519165
-0.0002778768539428711
-0.0002837181091308594
-0.0002876967191696167
-0.0002899169921875
-0.0002903491258621216
-0.0002890080213546753
-0.0002861917018890381
-0.0002818554639816284
-0.00027635693550109863
-0.000269964337348938
-0.0002627819776535034
-0.00025522708892822266
-0.0002474486827850342
-0.00023977458477020264
-0.00023223459720611572
-0.00022505223751068115
-0.00021830201148986816
-0.00021201372146606445
-0.00020612776279449463
-0.0002005845308303833
-0.00019527971744537354
-0.0001900196075439453
-0.00018489360809326172
-0.00017945468425750732
-0.00017374753952026367
-0.00016769766807556152
-0.00016111135482788086
-0.00015406310558319092
-0.0001465827226638794
-0.0001385509967803955
-0.00013022124767303467
-0.0001217573881149292
-0.00011320412158966064
-0.0001049041748046875
-9.700655937194824e-05
-8.963048458099365e-05
-8.301436901092529e-05
-7.729232311248779e-05
-7.253885269165039e-05
-6.867945194244385e-05
-6.571412086486816e-05
-6.35683536529541e-05
-6.203353404998779e-05
-6.10649585723877e-05
-6.0498714447021484e-05
-6.026029586791992e-05
-6.00963830947876e-05
-6.0051679611206055e-05
-6.00665807723999e-05
-5.9992074966430664e-05
-5.984306335449219e-05
-5.9664249420166016e-05
-5.950033664703369e-05
-5.9276819229125977e-05
-5.905330181121826e-05
-5.874037742614746e-05
-5.857646465301514e-05
-5.8323144912719727e-05
-5.805492401123047e-05
-5.777180194854736e-05
-5.7443976402282715e-05
-5.7071447372436523e-05
-5.666911602020264e-05
-5.608797073364258e-05
-5.544722080230713e-05
-5.476176738739014e-05
-5.4016709327697754e-05
-5.319714546203613e-05
-5.239248275756836e-05
-5.1602721214294434e-05
-5.085766315460205e-05
-5.0202012062072754e-05
-4.9754977226257324e-05
-4.9620866775512695e-05
-4.9754977226257324e-05
-5.0321221351623535e-05
-5.128979682922363e-05
-5.2809715270996094e-05
-5.488097667694092e-05
-5.760788917541504e-05
-6.0930848121643066e-05
-6.48796558380127e-05
-9.995698928833008e-05
-0.0001138448715209961
-0.00012630224227905273
-0.0001373887062072754
-0.0001472383737564087
-0.00015626847743988037
-0.00016492605209350586
-0.00017355382442474365
-0.00018252432346343994
-0.00019209086894989014
-0.00020226836204528809
-0.00021308660507202148
-0.00022424757480621338
-0.00023546814918518066
-0.00024637579917907715
-0.0002567470073699951
-0.000266149640083313
-0.0002744048833847046
-0.0002811551094055176
-0.0002863854169845581
-0.00028990209102630615
-0.0002917945384979248
-0.0002919435501098633
-0.00029049813747406006
-0.00028756260871887207
-0.00028327107429504395
-0.0002778470516204834
-0.00027136504650115967
-0.00026419758796691895
-0.00025653839111328125
-0.0002486705780029297
-0.0002407282590866089
-0.00023296475410461426
-0.00022558867931365967
-0.00021864473819732666
-0.00021207332611083984
-0.0002060234546661377
-0.0002002120018005371
-0.00019474327564239502
-0.00018931925296783447
-0.00018391013145446777
-0.0001782923936843872
-0.0001723766326904297
-0.00016604363918304443
-0.0001592189073562622
-0.00015185773372650146
-0.0001439601182937622
-0.00013561546802520752
-0.00012686848640441895
-0.0001179426908493042
-0.00010894238948822021
-0.00010022521018981934
-9.182095527648926e-05
-8.411705493927002e-05
-7.72327184677124e-05
-7.12275505065918e-05
-6.622076034545898e-05
-6.23166561126709e-05
-5.926191806793213e-05
-5.720555782318115e-05
-5.577504634857178e-05
-5.501508712768555e-05
-5.4702162742614746e-05
-5.4642558097839355e-05
-5.4717063903808594e-05
-5.488097667694092e-05
-5.5089592933654785e-05
-5.513429641723633e-05
-5.5164098739624023e-05
-5.507469177246094e-05
-5.4970383644104004e-05
-5.479156970977783e-05
-5.462765693664551e-05
-5.4448843002319336e-05
-5.4210424423217773e-05
-5.4001808166503906e-05
-5.37186861038208e-05
-5.3435564041137695e-05
-5.310773849487305e-05
-5.266070365905762e-05
-5.21540641784668e-05
-5.157291889190674e-05
-5.079805850982666e-05
-4.991888999938965e-05
-4.887580871582031e-05
-4.7832727432250977e-05
-4.6640634536743164e-05
-4.5433640480041504e-05
-4.41819429397583e-05
-4.3019652366638184e-05
-4.1961669921875e-05
-4.105269908905029e-05
-4.048645496368408e-05
-4.023313522338867e-05
-4.030764102935791e-05
-4.094839096069336e-05
-4.203617572784424e-05
-4.379451274871826e-05
-4.620850086212158e-05
-4.9307942390441895e-05
-0.0001093149185180664
-0.00012327730655670166
-0.00013557076454162598
-0.00014625489711761475
-0.000155717134475708
-0.00016422569751739502
-0.00017236173152923584
-0.00018040835857391357
-0.0001888573169708252
-0.00019787251949310303
-0.0002076178789138794
-0.00021786987781524658
-0.0002285689115524292
-0.0002392977476119995
-0.000249713659286499
-0.0002595484256744385
-0.00026838481426239014
-0.0002761036157608032
-0.00028239190578460693
-0.0002871900796890259
-0.0002904832363128662
-0.00029215216636657715
-0.0002922862768173218
-0.00029093027114868164
-0.00028811395168304443
-0.0002840012311935425
-0.00027868151664733887
-0.0002723485231399536
-0.0002652853727340698
-0.00025762617588043213
-0.0002496987581253052
-0.0002416074275970459
-0.00023365020751953125
-0.00022611021995544434
-0.00021889805793762207
-0.00021222233772277832
-0.00020590424537658691
-0.000199928879737854
-0.0001942664384841919
-0.00018870830535888672
-0.00018309056758880615
-0.00017730891704559326
-0.00017122924327850342
-0.0001646280288696289
-0.00015753507614135742
-0.00014987587928771973
-0.00014163553714752197
-0.00013287365436553955
-0.00012378394603729248
-0.00011442601680755615
-0.00010499358177185059
-9.581446647644043e-05
-8.703768253326416e-05
-7.888674736022949e-05
-7.162988185882568e-05
-6.538629531860352e-05
-6.029009819030762e-05
-5.62518835067749e-05
-5.3256750106811523e-05
-5.120038986206055e-05
-4.999339580535889e-05
-4.941225051879883e-05
-4.9307942390441895e-05
-4.953145980834961e-05
-4.984438419342041e-05
-5.027651786804199e-05
-5.05596399307251e-05
-5.081295967102051e-05
-5.099177360534668e-05
-5.100667476654053e-05
-5.100667476654053e-05
-5.08427619934082e-05
-5.0693750381469727e-05
-5.0455331802368164e-05
-5.0321221351623535e-05
-5.009770393371582e-05
-4.985928535461426e-05
-4.960596561431885e-05
-4.9233436584472656e-05
-4.8801302909851074e-05
-4.826486110687256e-05
-4.7579407691955566e-05
-4.680454730987549e-05
-4.57763671875e-05
-4.458427429199219e-05
-4.3272972106933594e-05
-4.182755947113037e-05
-4.026293754577637e-05
-3.866851329803467e-05
-3.701448440551758e-05
-3.542006015777588e-05
-3.3989548683166504e-05
-3.267824649810791e-05
-3.166496753692627e-05
-3.090500831604004e-05
-3.0666589736938477e-05
-3.0875205993652344e-05
-3.165006637573242e-05
-3.306567668914795e-05
-3.515183925628662e-05
-0.00011955201625823975
-0.00013342499732971191
-0.0001453310251235962
-0.00015564262866973877
-0.00016450881958007812
-0.00017240643501281738
-0.00017978250980377197
-0.00018712878227233887
-0.00019472837448120117
-0.00020295381546020508
-0.00021186470985412598
-0.00022140145301818848
-0.00023134052753448486
-0.00024139881134033203
-0.0002511441707611084
-0.00026032328605651855
-0.0002686828374862671
-0.00027589499950408936
-0.0002818852663040161
-0.00028643012046813965
-0.00028958916664123535
-0.0002913177013397217
-0.0002915710210800171
-0.00029040873050689697
-0.0002878457307815552
-0.00028401613235473633
-0.0002790093421936035
-0.00027295947074890137
-0.0002660006284713745
-0.0002584606409072876
-0.0002504885196685791
-0.00024239718914031982
-0.0002343505620956421
-0.00022661685943603516
-0.00021925568580627441
-0.00021232664585113525
-0.00020585954189300537
-0.00019977986812591553
-0.0001939535140991211
-0.0001882016658782959
-0.0001824498176574707
-0.0001765042543411255
-0.00017018616199493408
-0.0001633763313293457
-0.0001561194658279419
-0.000148087739944458
-0.00013959407806396484
-0.00013050436973571777
-0.00012102723121643066
-0.0001112520694732666
-0.00010135769844055176
-9.177625179290771e-05
-8.262693881988525e-05
-7.411837577819824e-05
-6.654858589172363e-05
-6.003677845001221e-05
-5.474686622619629e-05
-5.0634145736694336e-05
-4.762411117553711e-05
-4.5746564865112305e-05
-4.4658780097961426e-05
-4.436075687408447e-05
-4.44948673248291e-05
-4.495680332183838e-05
-4.550814628601074e-05
-4.616379737854004e-05
-4.667043685913086e-05
-4.70578670501709e-05
-4.735589027404785e-05
-4.747509956359863e-05
-4.741549491882324e-05
-4.738569259643555e-05
-4.7206878662109375e-05
-4.699826240539551e-05
-4.680454730987549e-05
-4.667043685913086e-05
-4.64022159576416e-05
-4.610419273376465e-05
-4.585087299346924e-05
-4.5359134674072266e-05
-4.48077917098999e-05
-4.412233829498291e-05
-4.3272972106933594e-05
-4.215538501739502e-05
-4.0918588638305664e-05
-3.94284725189209e-05
-3.775954246520996e-05
-3.5956501960754395e-05
-3.406405448913574e-05
-3.203749656677246e-05
-3.0025839805603027e-05
-2.802908420562744e-05
-2.6211142539978027e-05
-2.4512410163879395e-05
-2.3111701011657715e-05
-2.2038817405700684e-05
-2.1383166313171387e-05
-2.1249055862426758e-05
-2.168118953704834e-05
-2.2798776626586914e-05
-0.00013025104999542236
-0.00014375150203704834
-0.00015524029731750488
-0.00016492605209350586
-0.00017318129539489746
-0.00018034875392913818
-0.00018687546253204346
-0.0001933276653289795
-0.00020003318786621094
-0.0002072453498840332
-0.00021517276763916016
-0.0002237558364868164
-0.00023278594017028809
-0.0002419203519821167
-0.0002510249614715576
-0.00025959312915802
-0.00026741623878479004
-0.0002742558717727661
-0.0002799183130264282
-0.00028440356254577637
-0.0002875775098800659
-0.0002894103527069092
-0.0002899169921875
-0.0002890974283218384
-0.00028699636459350586
-0.0002835094928741455
-0.00027889013290405273
-0.00027310848236083984
-0.00026641786098480225
-0.00025904178619384766
-0.0002511441707611084
-0.00024306774139404297
-0.00023499131202697754
-0.00022710859775543213
-0.00021961331367492676
-0.00021255016326904297
-0.00020590424537658691
-0.00019972026348114014
-0.00019371509552001953
-0.00018784403800964355
-0.00018192827701568604
-0.00017586350440979004
-0.00016936659812927246
-0.0001624077558517456
-0.00015488266944885254
-0.00014668703079223633
-0.00013783574104309082
-0.00012846291065216064
-0.00011861324310302734
-0.0001084357500076294
-9.82433557510376e-05
-8.812546730041504e-05
-7.858872413635254e-05
-6.969273090362549e-05
-6.183981895446777e-05
-5.510449409484863e-05
-4.9620866775512695e-05
-4.54634428024292e-05
-4.251301288604736e-05
-4.07099723815918e-05
-3.986060619354248e-05
-3.978610038757324e-05
-4.017353057861328e-05
-4.094839096069336e-05
-4.178285598754883e-05
-4.26173210144043e-05
-4.336237907409668e-05
-4.388391971588135e-05
-4.4226646423339844e-05
-4.439055919647217e-05
-4.442036151885986e-05
-4.436075687408447e-05
-4.4152140617370605e-05
-4.392862319946289e-05
-4.373490810394287e-05
-4.348158836364746e-05
-4.3258070945739746e-05
-4.3004751205444336e-05
-4.2751431465148926e-05
-4.233419895172119e-05
-4.178285598754883e-05
-4.1097402572631836e-05
-4.023313522338867e-05
-3.904104232788086e-05
-3.771483898162842e-05
-3.612041473388672e-05
-3.431737422943115e-05
-3.236532211303711e-05
-3.0219554901123047e-05
-2.790987491607666e-05
-2.5570392608642578e-05
-2.321600914001465e-05
-2.0906329154968262e-05
-1.8715858459472656e-05
-1.6674399375915527e-05
-1.500546932220459e-05
-1.3589859008789062e-05
-1.2606382369995117e-05
-1.220405101776123e-05
-1.233816146850586e-05
-0.00014071166515350342
-0.00015372037887573242
-0.00016477704048156738
-0.000173911452293396
-0.0001814514398574829
-0.0001878291368484497
-0.00019356608390808105
-0.0001989603042602539
-0.00020460784435272217
-0.0002107769250869751
-0.00021758675575256348
-0.0002250969409942627
-0.0002330988645553589
-0.00024139881134033203
-0.00024965405464172363
-0.0002575516700744629
-0.00026488304138183594
-0.0002714097499847412
-0.00027689337730407715
-0.00028133392333984375
-0.00028461217880249023
-0.0002866685390472412
-0.0002875477075576782
-0.00028711557388305664
-0.00028540194034576416
-0.0002824366092681885
-0.0002783089876174927
-0.00027295947074890137
-0.0002666264772415161
-0.0002594590187072754
-0.00025166571140289307
-0.00024361908435821533
-0.00023558735847473145
-0.0002276301383972168
-0.00021998584270477295
-0.00021286308765411377
-0.00020608305931091309
-0.0001997053623199463
-0.0001936107873916626
-0.00018765032291412354
-0.0001815706491470337
-0.00017537176609039307
-0.00016869604587554932
-0.00016167759895324707
-0.0001538991928100586
-0.00014550983905792236
-0.00013646483421325684
-0.0001268535852432251
-0.00011664628982543945
-0.00010609626770019531
-9.548664093017578e-05
-8.502602577209473e-05
-7.502734661102295e-05
-6.583333015441895e-05
-5.766749382019043e-05
-5.0693750381469727e-05
-4.500150680541992e-05
-4.075467586517334e-05
-3.789365291595459e-05
-3.6269426345825195e-05
-3.55839729309082e-05
-3.5762786865234375e-05
-3.644824028015137e-05
-3.7536025047302246e-05
-3.863871097564697e-05
-3.968179225921631e-05
-4.060566425323486e-05
-4.126131534576416e-05
-4.170835018157959e-05
-4.1872262954711914e-05
-4.184246063232422e-05
-4.1738152503967285e-05
-4.1484832763671875e-05
-4.1231513023376465e-05
-4.09930944442749e-05
-4.073977470397949e-05
-4.056096076965332e-05
-4.023313522338867e-05
-3.9964914321899414e-05
-3.959238529205322e-05
-3.904104232788086e-05
-3.838539123535156e-05
-3.744661808013916e-05
-3.6269426345825195e-05
-3.4928321838378906e-05
-3.331899642944336e-05
-3.133714199066162e-05
-2.925097942352295e-05
-2.6971101760864258e-05
-2.4512410163879395e-05
-2.1904706954956055e-05
-1.926720142364502e-05
-1.6689300537109375e-05
-1.405179500579834e-05
-1.1593103408813477e-05
-9.313225746154785e-06
-7.3015689849853516e-06
-5.662441253662109e-06
-4.470348358154297e-06
-3.7848949432373047e-06
-0.00015075504779815674
-0.00016327202320098877
-0.00017370283603668213
-0.00018221139907836914
-0.00018903613090515137
-0.00019462406635284424
-0.00019954144954681396
-0.00020396709442138672
-0.00020854175090789795
-0.00021360814571380615
-0.00021925568580627441
-0.00022558867931365967
-0.00023257732391357422
-0.00023993849754333496
-0.0002473592758178711
-0.0002546161413192749
-0.00026144087314605713
-0.00026763975620269775
-0.00027304887771606445
-0.00027745962142944336
-0.00028090178966522217
-0.0002833157777786255
-0.00028455257415771484
-0.0002845674753189087
-0.0002834796905517578
-0.0002810060977935791
-0.0002773404121398926
-0.00027242302894592285
-0.00026644766330718994
-0.0002596229314804077
-0.0002520829439163208
-0.00024415552616119385
-0.0002361387014389038
-0.00022810697555541992
-0.00022050738334655762
-0.0002132207155227661
-0.00020632147789001465
-0.00019983947277069092
-0.000193670392036438
-0.0001875758171081543
-0.00018143653869628906
-0.00017508864402770996
-0.00016839802265167236
-0.0001611262559890747
-0.0001532435417175293
-0.00014469027519226074
-0.00013543665409088135
-0.0001255422830581665
-0.00011508166790008545
-0.00010417401790618896
-9.322166442871094e-05
-8.238852024078369e-05
-7.203221321105957e-05
-6.246566772460938e-05
-5.395710468292236e-05
-4.6700239181518555e-05
-4.093348979949951e-05
-3.662705421447754e-05
-3.382563591003418e-05
-3.229081630706787e-05
-3.185868263244629e-05
-3.2320618629455566e-05
-3.333389759063721e-05
-3.46451997756958e-05
-3.604590892791748e-05
-3.738701343536377e-05
-3.838539123535156e-05
-3.916025161743164e-05
-3.968179225921631e-05
-3.986060619354248e-05
-3.981590270996094e-05
-3.960728645324707e-05
-3.927946090698242e-05
-3.8996338844299316e-05
-3.866851329803467e-05
-3.8370490074157715e-05
-3.813207149505615e-05
-3.7804245948791504e-05
-3.74913215637207e-05
-3.7103891372680664e-05
-3.6597251892089844e-05
-3.585219383239746e-05
-3.4928321838378906e-05
-3.3795833587646484e-05
-3.238022327423096e-05
-3.071129322052002e-05
-2.872943878173828e-05
-2.664327621459961e-05
-2.421438694000244e-05
-2.1636486053466797e-05
-1.8909573554992676e-05
-1.6048550605773926e-05
-1.315772533416748e-05
-1.0311603546142578e-05
-7.525086402893066e-06
-4.872679710388184e-06
-2.4139881134033203e-06
-2.682209014892578e-07
1.564621925354004e-06
2.9206275939941406e-06
-0.0001601576805114746
-0.0001720041036605835
-0.00018180906772613525
-0.00018964707851409912
-0.0001958310604095459
-0.00020076334476470947
-0.0002047717571258545
-0.00020836293697357178
-0.00021192431449890137
-0.00021585822105407715
-0.0002203434705734253
-0.00022554397583007812
-0.0002314448356628418
-0.0002377927303314209
-0.00024443864822387695
-0.00025103986263275146
-0.0002573728561401367
-0.0002632737159729004
-0.0002685636281967163
-0.00027307868003845215
-0.00027677416801452637
-0.00027942657470703125
-0.0002811253070831299
-0.00028167665004730225
-0.0002810657024383545
-0.000279158353805542
-0.000276029109954834
-0.0002716332674026489
-0.00026607513427734375
-0.00025957822799682617
-0.00025232136249542236
-0.00024458765983581543
-0.00023660063743591309
-0.00022867321968078613
-0.00022095441818237305
-0.0002135932445526123
-0.0002066493034362793
-0.00020009279251098633
-0.00019377470016479492
-0.00018759071826934814
-0.00018137693405151367
-0.00017499923706054688
-0.00016817450523376465
-0.0001608431339263916
-0.0001528412103652954
-0.00014415383338928223
-0.0001347661018371582
-0.00012455880641937256
-0.00011388957500457764
-0.00010275840759277344
-9.146332740783691e-05
-8.031725883483887e-05
-6.961822509765625e-05
-5.967915058135986e-05
-5.0827860832214355e-05
-4.337728023529053e-05
-3.743171691894531e-05
-3.30805778503418e-05
-3.0308961868286133e-05
-2.8893351554870605e-05
-2.8684735298156738e-05
-2.9489398002624512e-05
-3.078579902648926e-05
-3.241002559661865e-05
-3.407895565032959e-05
-3.5628676414489746e-05
-3.679096698760986e-05
-3.7729740142822266e-05
-3.819167613983154e-05
-3.8295984268188477e-05
-3.820657730102539e-05
-3.790855407714844e-05
-3.75211238861084e-05
-3.7103891372680664e-05
-3.6716461181640625e-05
-3.6343932151794434e-05
-3.5956501960754395e-05
-3.5643577575683594e-05
-3.5256147384643555e-05
-3.485381603240967e-05
-3.4302473068237305e-05
-3.357231616973877e-05
-3.261864185333252e-05
-3.1441450119018555e-05
-3.0040740966796875e-05
-2.8327107429504395e-05
-2.633035182952881e-05
-2.415478229522705e-05
-2.1710991859436035e-05
-1.9043684005737305e-05
-1.6242265701293945e-05
-1.3306736946105957e-05
-1.0326504707336426e-05
-7.316470146179199e-06
-4.276633262634277e-06
-1.3709068298339844e-06
1.3709068298339844e-06
3.904104232788086e-06
6.16908073425293e-06
8.016824722290039e-06
-0.00016883015632629395
-0.00017996132373809814
-0.00018912553787231445
-0.00019632279872894287
-0.0002019256353378296
-0.00020614266395568848
-0.00020937621593475342
-0.00021214783191680908
-0.00021475553512573242
-0.00021763145923614502
-0.0002209991216659546
-0.00022508203983306885
-0.00022989511489868164
-0.00023527443408966064
-0.00024107098579406738
-0.00024697184562683105
-0.0002529323101043701
-0.000258520245552063
-0.00026370584964752197
-0.00026829540729522705
-0.000272214412689209
-0.00027526915073394775
-0.0002773851156234741
-0.0002784430980682373
-0.0002784132957458496
-0.0002769976854324341
-0.00027446448802948
-0.0002706199884414673
-0.0002654939889907837
-0.0002593696117401123
-0.0002524256706237793
-0.0002448856830596924
-0.00023704767227172852
-0.0002291947603225708
-0.00022146105766296387
-0.00021408498287200928
-0.0002069920301437378
-0.0002003312110900879
-0.0001939833164215088
-0.00018769502639770508
-0.00018140673637390137
-0.00017496943473815918
-0.00016811490058898926
-0.00016075372695922852
-0.00015267729759216309
-0.00014390051364898682
-0.00013436377048492432
-0.00012405216693878174
-0.00011317431926727295
-0.00010181963443756104
-9.022653102874756e-05
-7.881224155426025e-05