# vtk DataFile Version 3.0
2D PINN Solution
ASCII
DATASET STRUCTURED_GRID
DIMENSIONS 100 100 1
POINTS 10000 float
-1.0 -1.0 0.0
-0.9797979797979798 -1.0 0.0
-0.9595959595959596 -1.0 0.0
-0.9393939393939394 -1.0 0.0
-0.9191919191919192 -1.0 0.0
-0.898989898989899 -1.0 0.0
-0.8787878787878788 -1.0 0.0
-0.8585858585858586 -1.0 0.0
-0.8383838383838383 -1.0 0.0
-0.8181818181818181 -1.0 0.0
-0.797979797979798 -1.0 0.0
-0.7777777777777778 -1.0 0.0
-0.7575757575757576 -1.0 0.0
-0.7373737373737373 -1.0 0.0
-0.7171717171717171 -1.0 0.0
-0.696969696969697 -1.0 0.0
-0.6767676767676767 -1.0 0.0
-0.6565656565656566 -1.0 0.0
-0.6363636363636364 -1.0 0.0
-0.6161616161616161 -1.0 0.0
-0.5959595959595959 -1.0 0.0
-0.5757575757575757 -1.0 0.0
-0.5555555555555556 -1.0 0.0
-0.5353535353535352 -1.0 0.0
-0.5151515151515151 -1.0 0.0
-0.4949494949494949 -1.0 0.0
-0.4747474747474747 -1.0 0.0
-0.4545454545454545 -1.0 0.0
-0.43434343434343425 -1.0 0.0
-0.41414141414141414 -1.0 0.0
-0.3939393939393939 -1.0 0.0
-0.3737373737373737 -1.0 0.0
-0.3535353535353535 -1.0 0.0
-0.33333333333333326 -1.0 0.0
-0.31313131313131304 -1.0 0.0
-0.2929292929292928 -1.0 0.0
-0.2727272727272727 -1.0 0.0
-0.2525252525252525 -1.0 0.0
-0.23232323232323226 -1.0 0.0
-0.21212121212121204 -1.0 0.0
-0.19191919191919182 -1.0 0.0
-0.1717171717171716 -1.0 0.0
-0.1515151515151515 -1.0 0.0
-0.13131313131313127 -1.0 0.0
-0.11111111111111105 -1.0 0.0
-0.09090909090909083 -1.0 0.0
-0.07070707070707061 -1.0 0.0
-0.050505050505050386 -1.0 0.0
-0.030303030303030276 -1.0 0.0
-0.010101010101010055 -1.0 0.0
0.010101010101010166 -1.0 0.0
0.030303030303030498 -1.0 0.0
0.05050505050505061 -1.0 0.0
0.07070707070707072 -1.0 0.0
0.09090909090909105 -1.0 0.0
0.11111111111111116 -1.0 0.0
0.1313131313131315 -1.0 0.0
0.1515151515151516 -1.0 0.0
0.1717171717171717 -1.0 0.0
0.19191919191919204 -1.0 0.0
0.21212121212121215 -1.0 0.0
0.2323232323232325 -1.0 0.0
0.2525252525252526 -1.0 0.0
0.27272727272727293 -1.0 0.0
0.29292929292929304 -1.0 0.0
0.31313131313131315 -1.0 0.0
0.3333333333333335 -1.0 0.0
0.3535353535353536 -1.0 0.0
0.3737373737373739 -1.0 0.0
0.39393939393939403 -1.0 0.0
0.41414141414141437 -1.0 0.0
0.4343434343434345 -1.0 0.0
0.4545454545454546 -1.0 0.0
0.4747474747474749 -1.0 0.0
0.49494949494949503 -1.0 0.0
0.5151515151515154 -1.0 0.0
0.5353535353535355 -1.0 0.0
0.5555555555555556 -1.0 0.0
0.5757575757575759 -1.0 0.0
0.595959595959596 -1.0 0.0
0.6161616161616164 -1.0 0.0
0.6363636363636365 -1.0 0.0
0.6565656565656568 -1.0 0.0
0.6767676767676769 -1.0 0.0
0.696969696969697 -1.0 0.0
0.7171717171717173 -1.0 0.0
0.7373737373737375 -1.0 0.0
0.7575757575757578 -1.0 0.0
0.7777777777777779 -1.0 0.0
0.7979797979797982 -1.0 0.0
0.8181818181818183 -1.0 0.0
0.8383838383838385 -1.0 0.0
0.8585858585858588 -1.0 0.0
0.8787878787878789 -1.0 0.0
0.8989898989898992 -1.0 0.0
0.9191919191919193 -1.0 0.0
0.9393939393939394 -1.0 0.0
0.9595959595959598 -1.0 0.0
0.9797979797979799 -1.0 0.0
1.0 -1.0 0.0
-1.0 -0.9797979797979798 0.0
-0.9797979797979798 -0.9797979797979798 0.0
-0.9595959595959596 -0.9797979797979798 0.0
-0.9393939393939394 -0.9797979797979798 0.0
-0.9191919191919192 -0.9797979797979798 0.0
-0.898989898989899 -0.9797979797979798 0.0
-0.8787878787878788 -0.9797979797979798 0.0
-0.8585858585858586 -0.9797979797979798 0.0
-0.8383838383838383 -0.9797979797979798 0.0
-0.8181818181818181 -0.9797979797979798 0.0
-0.797979797979798 -0.9797979797979798 0.0
-0.7777777777777778 -0.9797979797979798 0.0
-0.7575757575757576 -0.9797979797979798 0.0
-0.7373737373737373 -0.9797979797979798 0.0
-0.7171717171717171 -0.9797979797979798 0.0
-0.696969696969697 -0.9797979797979798 0.0
-0.6767676767676767 -0.9797979797979798 0.0
-0.6565656565656566 -0.9797979797979798 0.0
-0.6363636363636364 -0.9797979797979798 0.0
-0.6161616161616161 -0.9797979797979798 0.0
-0.5959595959595959 -0.9797979797979798 0.0
-0.5757575757575757 -0.9797979797979798 0.0
-0.5555555555555556 -0.9797979797979798 0.0
-0.5353535353535352 -0.9797979797979798 0.0
-0.5151515151515151 -0.9797979797979798 0.0
-0.4949494949494949 -0.9797979797979798 0.0
-0.4747474747474747 -0.9797979797979798 0.0
-0.4545454545454545 -0.9797979797979798 0.0
-0.43434343434343425 -0.9797979797979798 0.0
-0.41414141414141414 -0.9797979797979798 0.0
-0.3939393939393939 -0.9797979797979798 0.0
-0.3737373737373737 -0.9797979797979798 0.0
-0.3535353535353535 -0.9797979797979798 0.0
-0.33333333333333326 -0.9797979797979798 0.0
-0.31313131313131304 -0.9797979797979798 0.0
-0.2929292929292928 -0.9797979797979798 0.0
-0.2727272727272727 -0.9797979797979798 0.0
-0.2525252525252525 -0.9797979797979798 0.0
-0.23232323232323226 -0.9797979797979798 0.0
-0.21212121212121204 -0.9797979797979798 0.0
-0.19191919191919182 -0.9797979797979798 0.0
-0.1717171717171716 -0.9797979797979798 0.0
-0.1515151515151515 -0.9797979797979798 0.0
-0.13131313131313127 -0.9797979797979798 0.0
-0.11111111111111105 -0.9797979797979798 0.0
-0.09090909090909083 -0.9797979797979798 0.0
-0.07070707070707061 -0.9797979797979798 0.0
-0.050505050505050386 -0.9797979797979798 0.0
-0.030303030303030276 -0.9797979797979798 0.0
-0.010101010101010055 -0.9797979797979798 0.0
0.010101010101010166 -0.9797979797979798 0.0
0.030303030303030498 -0.9797979797979798 0.0
0.05050505050505061 -0.9797979797979798 0.0
0.07070707070707072 -0.9797979797979798 0.0
0.09090909090909105 -0.9797979797979798 0.0
0.11111111111111116 -0.9797979797979798 0.0
0.1313131313131315 -0.9797979797979798 0.0
0.1515151515151516 -0.9797979797979798 0.0
0.1717171717171717 -0.9797979797979798 0.0
0.19191919191919204 -0.9797979797979798 0.0
0.21212121212121215 -0.9797979797979798 0.0
0.2323232323232325 -0.9797979797979798 0.0
0.2525252525252526 -0.9797979797979798 0.0
0.27272727272727293 -0.9797979797979798 0.0
0.29292929292929304 -0.9797979797979798 0.0
0.31313131313131315 -0.9797979797979798 0.0
0.3333333333333335 -0.9797979797979798 0.0
0.3535353535353536 -0.9797979797979798 0.0
0.3737373737373739 -0.9797979797979798 0.0
0.39393939393939403 -0.9797979797979798 0.0
0.41414141414141437 -0.9797979797979798 0.0
0.4343434343434345 -0.9797979797979798 0.0
0.4545454545454546 -0.9797979797979798 0.0
0.4747474747474749 -0.9797979797979798 0.0
0.49494949494949503 -0.9797979797979798 0.0
0.5151515151515154 -0.9797979797979798 0.0
0.5353535353535355 -0.9797979797979798 0.0
0.5555555555555556 -0.9797979797979798 0.0
0.5757575757575759 -0.9797979797979798 0.0
0.595959595959596 -0.9797979797979798 0.0
0.6161616161616164 -0.9797979797979798 0.0
0.6363636363636365 -0.9797979797979798 0.0
0.6565656565656568 -0.9797979797979798 0.0
0.6767676767676769 -0.9797979797979798 0.0
0.696969696969697 -0.9797979797979798 0.0
0.7171717171717173 -0.9797979797979798 0.0
0.7373737373737375 -0.9797979797979798 0.0
0.7575757575757578 -0.9797979797979798 0.0
0.7777777777777779 -0.9797979797979798 0.0
0.7979797979797982 -0.9797979797979798 0.0
0.8181818181818183 -0.9797979797979798 0.0
0.8383838383838385 -0.9797979797979798 0.0
0.8585858585858588 -0.9797979797979798 0.0
0.8787878787878789 -0.9797979797979798 0.0
0.8989898989898992 -0.9797979797979798 0.0
0.9191919191919193 -0.9797979797979798 0.0
0.9393939393939394 -0.9797979797979798 0.0
0.9595959595959598 -0.9797979797979798 0.0
0.9797979797979799 -0.9797979797979798 0.0
1.0 -0.9797979797979798 0.0
-1.0 -0.9595959595959596 0.0
-0.9797979797979798 -0.9595959595959596 0.0
-0.9595959595959596 -0.9595959595959596 0.0
-0.9393939393939394 -0.9595959595959596 0.0
-0.9191919191919192 -0.9595959595959596 0.0
-0.898989898989899 -0.9595959595959596 0.0
-0.8787878787878788 -0.9595959595959596 0.0
-0.8585858585858586 -0.9595959595959596 0.0
-0.8383838383838383 -0.9595959595959596 0.0
-0.8181818181818181 -0.9595959595959596 0.0
-0.797979797979798 -0.9595959595959596 0.0
-0.7777777777777778 -0.9595959595959596 0.0
-0.7575757575757576 -0.9595959595959596 0.0
-0.7373737373737373 -0.9595959595959596 0.0
-0.7171717171717171 -0.9595959595959596 0.0
-0.696969696969697 -0.9595959595959596 0.0
-0.6767676767676767 -0.9595959595959596 0.0
-0.6565656565656566 -0.9595959595959596 0.0
-0.6363636363636364 -0.9595959595959596 0.0
-0.6161616161616161 -0.9595959595959596 0.0
-0.5959595959595959 -0.9595959595959596 0.0
-0.5757575757575757 -0.9595959595959596 0.0
-0.5555555555555556 -0.9595959595959596 0.0
-0.5353535353535352 -0.9595959595959596 0.0
-0.5151515151515151 -0.9595959595959596 0.0
-0.4949494949494949 -0.9595959595959596 0.0
-0.4747474747474747 -0.9595959595959596 0.0
-0.4545454545454545 -0.9595959595959596 0.0
-0.43434343434343425 -0.9595959595959596 0.0
-0.41414141414141414 -0.9595959595959596 0.0
-0.3939393939393939 -0.9595959595959596 0.0
-0.3737373737373737 -0.9595959595959596 0.0
-0.3535353535353535 -0.9595959595959596 0.0
-0.33333333333333326 -0.9595959595959596 0.0
-0.31313131313131304 -0.9595959595959596 0.0
-0.2929292929292928 -0.9595959595959596 0.0
-0.2727272727272727 -0.9595959595959596 0.0
-0.2525252525252525 -0.9595959595959596 0.0
-0.23232323232323226 -0.9595959595959596 0.0
-0.21212121212121204 -0.9595959595959596 0.0
-0.19191919191919182 -0.9595959595959596 0.0
-0.1717171717171716 -0.9595959595959596 0.0
-0.1515151515151515 -0.9595959595959596 0.0
-0.13131313131313127 -0.9595959595959596 0.0
-0.11111111111111105 -0.9595959595959596 0.0
-0.09090909090909083 -0.9595959595959596 0.0
-0.07070707070707061 -0.9595959595959596 0.0
-0.050505050505050386 -0.9595959595959596 0.0
-0.030303030303030276 -0.9595959595959596 0.0
-0.010101010101010055 -0.9595959595959596 0.0
0.010101010101010166 -0.9595959595959596 0.0
0.030303030303030498 -0.9595959595959596 0.0
0.05050505050505061 -0.9595959595959596 0.0
0.07070707070707072 -0.9595959595959596 0.0
0.09090909090909105 -0.9595959595959596 0.0
0.11111111111111116 -0.9595959595959596 0.0
0.1313131313131315 -0.9595959595959596 0.0
0.1515151515151516 -0.9595959595959596 0.0
0.1717171717171717 -0.9595959595959596 0.0
0.19191919191919204 -0.9595959595959596 0.0
0.21212121212121215 -0.9595959595959596 0.0
[...]
POINT_DATA 10000
SCALARS u float 1
LOOKUP_TABLE default
-0.00011307001113891602
-0.00012573599815368652
-0.00013808906078338623
-0.00014993548393249512
-0.00016106665134429932
-0.00017130374908447266
-0.00018055737018585205
-0.00018872320652008057
-0.0001958310604095459
-0.00020173192024230957
-0.0002065598964691162
-0.0002104341983795166
-0.00021345913410186768
-0.00021582841873168945
-0.00021788477897644043
-0.0002197176218032837
-0.00022155046463012695
-0.00022359192371368408
-0.00022590160369873047
-0.00022864341735839844
-0.0002317875623703003
-0.00023534893989562988
-0.00023923814296722412
-0.00024327635765075684
-0.00024746358394622803
-0.00025159120559692383
-0.00025548040866851807
-0.0002589374780654907
-0.0002619922161102295
-0.0002643764019012451
-0.00026610493659973145
-0.00026720762252807617
-0.00026752054691314697
-0.00026729702949523926
-0.0002665221691131592
-0.0002653151750564575
-0.00026376545429229736
-0.00026188790798187256
-0.0002596825361251831
-0.000257149338722229
-0.0002541840076446533
-0.00025087594985961914
-0.00024688243865966797
-0.0002422332763671875
-0.0002368241548538208
-0.00023069977760314941
-0.0002238750457763672
-0.00021634995937347412
-0.00020831823348999023
-0.00019985437393188477
-0.00019128620624542236
-0.0001828521490097046
-0.00017471611499786377
-0.00016710162162780762
-0.00016033649444580078
-0.00015451014041900635
-0.00014984607696533203
-0.00014619529247283936
-0.00014381110668182373
-0.00014258921146392822
-0.0001424849033355713
-0.0001433640718460083
-0.00014512240886688232
-0.00014756619930267334
-0.0001506805419921875
-0.0001541823148727417
-0.00015787780284881592
-0.0001617521047592163
-0.00016561150550842285
-0.00016936659812927246
-0.0001728534698486328
-0.0001760721206665039
-0.00017887353897094727
-0.0001812279224395752
-0.00018317997455596924
-0.00018478929996490479
-0.00018590688705444336
-0.00018668174743652344
-0.00018702447414398193
-0.00018721818923950195
-0.00018708407878875732
-0.0001868903636932373
-0.00018656253814697266
-0.00018636882305145264
-0.0001862645149230957
-0.00018636882305145264
-0.00018668174743652344
-0.00018738210201263428
-0.00018841028213500977
-0.0001897662878036499
-0.00019140541553497314
-0.00019328296184539795
-0.00019535422325134277
-0.00019749999046325684
-0.0001995563507080078
-0.00020137429237365723
-0.00020292401313781738
-0.00020399689674377441
-0.00020444393157958984
-0.00020429491996765137
-0.00011795759201049805
-0.00012989342212677002
-0.00014144182205200195
-0.00015228986740112305
-0.00016242265701293945
-0.00017173588275909424
-0.00018011033535003662
-0.00018747150897979736
-0.00019384920597076416
-0.00019922852516174316
-0.00020360946655273438
-0.0002072453498840332
-0.00021007657051086426
-0.00021246075630187988
-0.000214502215385437
-0.0002164095640182495
-0.00021848082542419434
-0.00022079050540924072
-0.0002235621213912964
-0.0002266913652420044
-0.00023028254508972168
-0.00023427605628967285
-0.00023865699768066406
-0.00024330615997314453
-0.00024805963039398193
-0.0002527385950088501
-0.00025722384452819824
-0.0002614259719848633
-0.00026494264602661133
-0.00026792287826538086
-0.0002700686454772949
-0.0002714693546295166
-0.0002720654010772705
-0.0002719014883041382
-0.00027105212211608887
-0.00026954710483551025
-0.0002675354480743408
-0.00026504695415496826
-0.00026220083236694336
-0.0002588629722595215
-0.00025506317615509033
-0.0002507418394088745
-0.000245898962020874
-0.0002403557300567627
-0.00023411214351654053
-0.00022715330123901367
-0.00021953880786895752
-0.00021123886108398438
-0.00020253658294677734
-0.00019353628158569336
-0.00018450617790222168
-0.00017568469047546387
-0.0001672506332397461
-0.0001595020294189453
-0.0001526176929473877
-0.00014685094356536865
-0.00014220178127288818
-0.0001388341188430786
-0.0001367628574371338
-0.0001358240842819214
-0.0001361072063446045
-0.00013746321201324463
-0.00013966858386993408
-0.00014263391494750977
-0.00014616549015045166
-0.00015015900135040283
-0.00015436112880706787
-0.00015866756439208984
-0.00016291439533233643
-0.00016699731349945068
-0.00017076730728149414
-0.00017420947551727295
-0.00017724931240081787
-0.00017975270748138428
-0.00018183887004852295
-0.00018340349197387695
-0.00018452107906341553
-0.00018517673015594482
-0.00018543004989624023
-0.00018531084060668945
-0.0001850128173828125
-0.00018447637557983398
-0.00018380582332611084
-0.00018323957920074463
-0.00018268823623657227
-0.00018243491649627686
-0.0001823902130126953
-0.00018277764320373535
-0.00018352270126342773
-0.000184670090675354
-0.00018638372421264648
-0.00018833577632904053
-0.0001906752586364746
-0.00019316375255584717
-0.00019569694995880127
-0.00019818544387817383
-0.00020040571689605713
-0.00020229816436767578
-0.00020360946655273438
-0.00020425021648406982
-0.00012242794036865234
-0.00013361871242523193
-0.000144273042678833
-0.0001542419195175171
-0.00016348063945770264
-0.00017182528972625732
-0.0001793503761291504
-0.00018596649169921875
-0.0001916736364364624
-0.00019654631614685059
-0.0002006441354751587
-0.00020399689674377441
-0.00020675361156463623
-0.00020910799503326416
-0.00021125376224517822
-0.0002133697271347046
-0.00021569430828094482
-0.000218316912651062
-0.00022138655185699463
-0.00022488832473754883
-0.00022889673709869385
-0.0002333521842956543
-0.00023820996284484863
-0.00024330615997314453
-0.00024859607219696045
-0.00025378167629241943
-0.0002588033676147461
-0.0002634972333908081
-0.0002675354480743408
-0.0002709627151489258
-0.00027351081371307373
-0.00027520954608917236
-0.0002759695053100586
-0.0002757757902145386
-0.0002747774124145508
-0.00027298927307128906
-0.0002705901861190796
-0.0002675652503967285
-0.0002640038728713989
-0.0002599060535430908
-0.00025531649589538574
-0.00025016069412231445
-0.00024440884590148926
-0.0002380162477493286
-0.00023102760314941406
-0.00022327899932861328
-0.00021491944789886475
-0.00020599365234375
-0.00019675493240356445
-0.0001871734857559204
-0.000177726149559021
-0.0001684725284576416
-0.00015982985496520996
-0.000151902437210083
-0.00014495849609375
-0.00013913214206695557
-0.00013466179370880127
-0.00013147294521331787
-0.00012965500354766846
-0.0001289844512939453
-0.00012965500354766846
-0.00013133883476257324
-0.00013393163681030273
-0.0001373291015625
-0.00014130771160125732
-0.00014565885066986084
-0.00015026330947875977
-0.00015498697757720947
-0.0001595914363861084
-0.000164031982421875
-0.00016802549362182617
-0.00017175078392028809
-0.00017496943473815918
-0.000177726149559021
-0.00017982721328735352
-0.00018149614334106445
-0.00018258392810821533
-0.00018320977687835693
-0.0001833587884902954
-0.0001830756664276123
-0.0001824796199798584
-0.00018168985843658447
-0.00018072128295898438
-0.00017964839935302734
-0.00017870962619781494
-0.00017796456813812256
-0.00017756223678588867
-0.00017747282981872559
-0.00017793476581573486
-0.00017893314361572266
-0.00018036365509033203
-0.00018240511417388916
-0.00018486380577087402
-0.00018769502639770508
-0.00019071996212005615
-0.00019381940364837646
-0.00019681453704833984
-0.0001995563507080078
-0.00020174682140350342
-0.0002033710479736328
-0.00012649595737457275
-0.00013689696788787842
-0.00014668703079223633
-0.0001557767391204834
-0.000164031982421875
-0.00017161667346954346
-0.0001783221960067749
-0.00018431246280670166
-0.0001894831657409668
-0.0001939237117767334
-0.00019772350788116455
-0.0002008974552154541
-0.00020357966423034668
-0.00020600855350494385
-0.00020828843116760254
-0.00021061301231384277
-0.00021319091320037842
-0.00021608173847198486
-0.00021949410438537598
-0.00022333860397338867
-0.00022773444652557373
-0.0002326369285583496
-0.00023788213729858398
-0.00024344027042388916
-0.00024910271167755127
-0.0002547800540924072
-0.0002602487802505493
-0.0002653151750564575
-0.00026983022689819336
-0.0002736300230026245
-0.0002765059471130371
-0.00027839839458465576
-0.0002792477607727051
-0.0002790987491607666
-0.0002779364585876465
-0.0002758502960205078
-0.00027295947074890137
-0.00026935338973999023
-0.0002651512622833252
-0.0002603381872177124
-0.0002549588680267334
-0.0002489835023880005
-0.00024245679378509521
-0.00023534893989562988
-0.00022752583026885986
-0.00021912157535552979
-0.00021010637283325195
-0.000200614333152771
-0.00019077956676483154
-0.00018081068992614746
-0.00017093122005462646
-0.00016134977340698242
-0.00015245378017425537
-0.00014434754848480225
-0.00013734400272369385
-0.00013159215450286865
-0.00012718141078948975
-0.00012409687042236328
-0.00012239813804626465
-0.00012208521366119385
-0.0001229792833328247
-0.0001249760389328003
-0.00012794137001037598
-0.0001316666603088379
-0.00013592839241027832
-0.00014068186283111572
-0.00014562904834747314
-0.00015059113502502441
-0.00015556812286376953
-0.00016023218631744385
-0.0001645982265472412
-0.00016854703426361084
-0.0001719444990158081
-0.00017489492893218994
-0.00017720460891723633
-0.0001789480447769165
-0.00018003582954406738
-0.00018066167831420898
-0.00018070638179779053
-0.0001802891492843628
-0.00017952919006347656
-0.00017839670181274414
-0.00017708539962768555
-0.00017577409744262695
-0.00017432868480682373
-0.00017315149307250977
-0.00017224252223968506
-0.0001717209815979004
-0.00017173588275909424
-0.00017242133617401123
-0.00017365813255310059
-0.00017556548118591309
-0.00017812848091125488
-0.00018115341663360596
-0.00018462538719177246
-0.00018829107284545898
-0.00019206106662750244
-0.00019559264183044434
-0.00019882619380950928
-0.00020144879817962646
-0.00013013184070587158
-0.00013972818851470947
-0.00014863908290863037
-0.00015684962272644043
-0.00016435980796813965
-0.0001710951328277588
-0.00017715990543365479
-0.0001825392246246338
-0.00018724799156188965
-0.0001913309097290039
-0.00019487738609313965
-0.00019791722297668457
-0.0002006441354751587
-0.0002031475305557251
-0.00020557641983032227
-0.00020810961723327637
-0.00021088123321533203
-0.00021411478519439697
-0.00021782517433166504
-0.00022202730178833008
-0.00022679567337036133
-0.0002320408821105957
-0.00023764371871948242
-0.00024355947971343994
-0.0002496391534805298
-0.000255584716796875
-0.0002614259719848633
-0.0002669095993041992
-0.00027179718017578125
-0.0002758800983428955
-0.00027905404567718506
-0.00028105080127716064
-0.00028201937675476074
-0.0002817809581756592
-0.0002804100513458252
-0.00027805566787719727
-0.00027467310428619385
-0.00027051568031311035
-0.0002656280994415283
-0.0002601146697998047
-0.0002540498971939087
-0.0002474188804626465
-0.00024010241031646729
-0.00023221969604492188
-0.00022377073764801025
-0.00021472573280334473
-0.00020517408847808838
-0.00019516050815582275
-0.00018484890460968018
-0.00017443299293518066
-0.00016418099403381348
-0.00015436112880706787
-0.0001452416181564331
-0.00013703107833862305
-0.00012992322444915771
-0.00012417137622833252
-0.00011977553367614746
-0.00011679530143737793
-0.00011527538299560547
-0.0001150965690612793
-0.00011618435382843018
-0.00011840462684631348
-0.00012156367301940918
-0.0001255124807357788
-0.00013013184070587158
-0.00013506412506103516
-0.00014021992683410645
-0.00014549493789672852
-0.00015063583850860596
-0.00015559792518615723
-0.0001601874828338623
-0.00016438961029052734
-0.00016808509826660156
-0.00017122924327850342
-0.00017368793487548828
-0.00017559528350830078
-0.00017680227756500244
-0.0001774430274963379
-0.00017748773097991943
-0.00017702579498291016
-0.00017608702182769775
-0.00017480552196502686
-0.0001731961965560913
-0.00017143785953521729
-0.00016961991786956787
-0.00016798079013824463
-0.0001665651798248291
-0.00016558170318603516
-0.00016514956951141357
-0.00016535818576812744
-0.000166282057762146
-0.00016799569129943848
-0.00017045438289642334
-0.00017368793487548828
-0.0001774430274963379
-0.00018167495727539062
-0.00018602609634399414
-0.00019046664237976074
-0.00019468367099761963
-0.0001984238624572754
-0.00013333559036254883
-0.0001421421766281128
-0.00015026330947875977
-0.00015763938426971436
-0.0001643747091293335
-0.0001704096794128418
-0.00017589330673217773
-0.00018070638179779053
-0.0001850426197052002
-0.00018891692161560059
-0.0001922398805618286
-0.00019529461860656738
-0.0001979619264602661
-0.00020059943199157715
-0.0002032071352005005
-0.0002059340476989746
-0.00020900368690490723
-0.00021250545978546143
-0.0002164691686630249
-0.00022101402282714844
-0.0002260357141494751
-0.00023156404495239258
-0.00023749470710754395
-0.00024372339248657227
-0.00025004148483276367
-0.0002563595771789551
-0.00026248395442962646
-0.0002682507038116455
-0.0002733767032623291
-0.0002776980400085449
-0.0002810359001159668
-0.00028324127197265625
-0.0002841651439666748
-0.00028392672538757324
-0.00028236210346221924
-0.00027965009212493896
-0.0002758502960205078
-0.00027111172676086426
-0.0002656877040863037
-0.0002594590187072754
-0.000252649188041687
-0.0002452582120895386
-0.00023730099201202393
-0.0002288222312927246
-0.0002197474241256714
-0.0002101510763168335
-0.00020006299018859863
-0.00018958747386932373
-0.00017882883548736572
-0.0001680999994277954
-0.0001575946807861328
-0.0001474916934967041
-0.00013816356658935547
-0.00012984871864318848
-0.0001227259635925293
-0.00011686980724334717
-0.00011254847049713135
-0.00010961294174194336
-0.00010824203491210938
-0.00010818243026733398
-0.0001093447208404541
-0.00011172890663146973
-0.00011502206325531006
-0.00011903047561645508
-0.00012373924255371094
-0.00012877583503723145
-0.00013409554958343506
-0.00013950467109680176
-0.00014485418796539307
-0.0001499652862548828
-0.00015482306480407715
-0.00015920400619506836
-0.00016307830810546875
-0.00016643106937408447
-0.00016917288303375244
-0.00017121434211730957
-0.00017261505126953125
-0.00017336010932922363
-0.0001735091209411621
-0.00017304718494415283
-0.00017209351062774658
-0.0001706629991531372
-0.0001688450574874878
-0.0001668184995651245
-0.00016473233699798584
-0.00016260147094726562
-0.00016072392463684082
-0.0001592189073562622
-0.00015823543071746826
-0.00015792250633239746
-0.00015847384929656982
-0.00015982985496520996
-0.0001620650291442871
-0.0001652538776397705
-0.00016920268535614014
-0.00017377734184265137
-0.00017885863780975342
-0.00018414855003356934
-0.00018931925296783447
-0.0001942068338394165
-0.0001360177993774414
-0.0001440495252609253
-0.00015144050121307373
-0.00015808641910552979
-0.00016416609287261963
-0.00016961991786956787
-0.0001745373010635376
-0.0001789480447769165
-0.00018298625946044922
-0.0001865774393081665
-0.00018987059593200684
-0.00019285082817077637
-0.00019566714763641357
-0.00019840896129608154
-0.00020116567611694336
-0.0002041161060333252
-0.00020743906497955322
-0.00021113455295562744
-0.00021538138389587402
-0.00022016465663909912
-0.00022549927234649658
-0.00023126602172851562
-0.00023746490478515625
-0.00024384260177612305
-0.00025041401386260986
-0.000256955623626709
-0.0002633333206176758
-0.0002692490816116333
-0.00027458369731903076
-0.0002791285514831543
-0.00028258562088012695
-0.00028486549854278564
-0.00028586387634277344
-0.00028552114963531494
-0.0002837181091308594
-0.00028067827224731445
-0.0002764761447906494
-0.00027126073837280273
-0.00026513636112213135
-0.00025832653045654297
-0.0002508014440536499
-0.00024271011352539062
-0.00023412704467773438
-0.0002250373363494873
-0.00021542608737945557
-0.0002053380012512207
-0.0001948028802871704
-0.00018388032913208008
-0.00017282366752624512
-0.00016179680824279785
-0.0001510530710220337
-0.00014071166515350342
-0.0001312941312789917
-0.00012281537055969238
-0.00011561810970306396
-0.00010982155799865723
-0.00010551512241363525
-0.0001026839017868042
-0.00010128319263458252
-0.00010128319263458252
-0.00010260939598083496
-0.0001049339771270752
-0.00010822713375091553
-0.00011223554611206055
-0.00011689960956573486
-0.00012189149856567383
-0.0001271963119506836
-0.000132635235786438
-0.00013799965381622314
-0.00014321506023406982
-0.00014813244342803955
-0.0001526474952697754
-0.00015673041343688965
-0.00016032159328460693
-0.00016324222087860107
-0.0001655668020248413
-0.0001672208309173584
-0.0001681894063949585
-0.00016845762729644775
-0.00016820430755615234
-0.0001672804355621338
-0.00016584992408752441
-0.00016398727893829346
-0.000161781907081604
-0.00015942752361297607
-0.00015698373317718506
-0.00015470385551452637
-0.00015270709991455078
-0.00015121698379516602
-0.00015029311180114746
-0.0001503080129623413
-0.00015121698379516602
-0.0001532435417175293
-0.00015619397163391113
-0.0001601874828338623
-0.0001650601625442505
-0.00017058849334716797
-0.00017656385898590088
-0.0001827627420425415
-0.00018873810768127441
-0.0001382976770401001
-0.0001456141471862793
-0.00015226006507873535
-0.00015823543071746826
-0.00016376376152038574
-0.00016871094703674316
-0.00017315149307250977
-0.00017729401588439941
-0.00018103420734405518
-0.00018453598022460938
-0.00018770992755889893
-0.00019073486328125
-0.000193670392036438
-0.00019653141498565674
-0.00019951164722442627
-0.00020268559455871582
-0.00020615756511688232
-0.00021013617515563965
-0.00021463632583618164
-0.00021964311599731445
-0.0002250969409942627
-0.000231131911277771
-0.00023743510246276855
-0.00024400651454925537
-0.00025069713592529297
-0.0002573728561401367
-0.00026385486125946045
-0.000269964337348938
-0.0002754032611846924
-0.0002801269292831421
-0.0002837181091308594
-0.00028608739376068115
-0.0002870410680770874
-0.00028654932975769043
-0.0002845972776412964
-0.00028124451637268066
-0.0002765655517578125
-0.000270843505859375
-0.0002641230821609497
-0.0002566128969192505
-0.00024853646755218506
-0.00023978948593139648
-0.00023064017295837402
-0.0002209693193435669
-0.0002108365297317505
-0.0002002716064453125
-0.0001894235610961914
-0.00017820298671722412
-0.00016686320304870605
-0.00015553832054138184
-0.00014457106590270996
-0.00013415515422821045
-0.00012458860874176025
-0.00011612474918365479
-0.00010885298252105713
-0.00010307133197784424
-9.880959987640381e-05
-9.60230827331543e-05
-9.469687938690186e-05
-9.47117805480957e-05
-9.594857692718506e-05
-9.825825691223145e-05
-0.00010141730308532715
-0.00010530650615692139
-0.00010973215103149414
-0.00011458992958068848
-0.00011965632438659668
-0.00012484192848205566
-0.00013002753257751465
-0.00013519823551177979
-0.00014010071754455566
-0.0001446753740310669
-0.0001488327980041504
-0.00015257298946380615
-0.0001557469367980957
-0.0001583695411682129
-0.00016033649444580078
-0.00016161799430847168
-0.00016219913959503174
-0.00016219913959503174
-0.00016148388385772705
-0.00016023218631744385
-0.00015844404697418213
-0.00015626847743988037
-0.00015375018119812012
-0.00015115737915039062
-0.00014854967594146729
-0.00014610588550567627
-0.00014410912990570068
-0.0001427382230758667
-0.00014215707778930664
-0.00014249980449676514
-0.0001439899206161499
-0.00014664232730865479
-0.00015054643154144287
-0.0001554042100906372
-0.00016131997108459473
-0.00016793608665466309
-0.00017495453357696533
-0.00018206238746643066
-0.00014013051986694336
-0.00014674663543701172
-0.00015279650688171387
-0.00015822052955627441
-0.00016321241855621338
-0.00016771256923675537
-0.00017181038856506348
-0.00017566978931427002
-0.00017927587032318115
-0.0001827031373977661
-0.0001859217882156372
-0.00018902122974395752
-0.0001919865608215332
-0.00019508600234985352
-0.00019824504852294922
-0.0002015233039855957
-0.00020532310009002686
-0.00020945072174072266
-0.00021407008171081543
-0.00021924078464508057
-0.00022494792938232422
-0.00023098289966583252
-0.00023740530014038086
-0.00024405121803283691
-0.0002508312463760376
-0.00025750696659088135
-0.00026410818099975586
-0.0002702772617340088
-0.00027583539485931396
-0.0002806335687637329
-0.0002843141555786133
-0.0002867579460144043
-0.0002876967191696167
-0.0002871006727218628
-0.0002849400043487549
-0.0002812892198562622
-0.00027623772621154785
-0.0002699941396713257
-0.0002626776695251465
-0.0002545565366744995
-0.00024577975273132324
-0.0002364814281463623
-0.00022670626640319824