# vtk DataFile Version 3.0
2D PINN Solution
ASCII
DATASET STRUCTURED_GRID
DIMENSIONS 100 100 1
POINTS 10000 float
-1.0 -1.0 0.0
-0.9797979797979798 -1.0 0.0
-0.9595959595959596 -1.0 0.0
-0.9393939393939394 -1.0 0.0
-0.9191919191919192 -1.0 0.0
-0.898989898989899 -1.0 0.0
-0.8787878787878788 -1.0 0.0
-0.8585858585858586 -1.0 0.0
-0.8383838383838383 -1.0 0.0
-0.8181818181818181 -1.0 0.0
-0.797979797979798 -1.0 0.0
-0.7777777777777778 -1.0 0.0
-0.7575757575757576 -1.0 0.0
-0.7373737373737373 -1.0 0.0
-0.7171717171717171 -1.0 0.0
-0.696969696969697 -1.0 0.0
-0.6767676767676767 -1.0 0.0
-0.6565656565656566 -1.0 0.0
-0.6363636363636364 -1.0 0.0
-0.6161616161616161 -1.0 0.0
-0.5959595959595959 -1.0 0.0
-0.5757575757575757 -1.0 0.0
-0.5555555555555556 -1.0 0.0
-0.5353535353535352 -1.0 0.0
-0.5151515151515151 -1.0 0.0
-0.4949494949494949 -1.0 0.0
-0.4747474747474747 -1.0 0.0
-0.4545454545454545 -1.0 0.0
-0.43434343434343425 -1.0 0.0
-0.41414141414141414 -1.0 0.0
-0.3939393939393939 -1.0 0.0
-0.3737373737373737 -1.0 0.0
-0.3535353535353535 -1.0 0.0
-0.33333333333333326 -1.0 0.0
-0.31313131313131304 -1.0 0.0
-0.2929292929292928 -1.0 0.0
-0.2727272727272727 -1.0 0.0
-0.2525252525252525 -1.0 0.0
-0.23232323232323226 -1.0 0.0
-0.21212121212121204 -1.0 0.0
-0.19191919191919182 -1.0 0.0
-0.1717171717171716 -1.0 0.0
-0.1515151515151515 -1.0 0.0
-0.13131313131313127 -1.0 0.0
-0.11111111111111105 -1.0 0.0
-0.09090909090909083 -1.0 0.0
-0.07070707070707061 -1.0 0.0
-0.050505050505050386 -1.0 0.0
-0.030303030303030276 -1.0 0.0
-0.010101010101010055 -1.0 0.0
0.010101010101010166 -1.0 0.0
0.030303030303030498 -1.0 0.0
0.05050505050505061 -1.0 0.0
0.07070707070707072 -1.0 0.0
0.09090909090909105 -1.0 0.0
0.11111111111111116 -1.0 0.0
0.1313131313131315 -1.0 0.0
0.1515151515151516 -1.0 0.0
0.1717171717171717 -1.0 0.0
0.19191919191919204 -1.0 0.0
0.21212121212121215 -1.0 0.0
0.2323232323232325 -1.0 0.0
0.2525252525252526 -1.0 0.0
0.27272727272727293 -1.0 0.0
0.29292929292929304 -1.0 0.0
0.31313131313131315 -1.0 0.0
0.3333333333333335 -1.0 0.0
0.3535353535353536 -1.0 0.0
0.3737373737373739 -1.0 0.0
0.39393939393939403 -1.0 0.0
0.41414141414141437 -1.0 0.0
0.4343434343434345 -1.0 0.0
0.4545454545454546 -1.0 0.0
0.4747474747474749 -1.0 0.0
0.49494949494949503 -1.0 0.0
0.5151515151515154 -1.0 0.0
0.5353535353535355 -1.0 0.0
0.5555555555555556 -1.0 0.0
0.5757575757575759 -1.0 0.0
0.595959595959596 -1.0 0.0
0.6161616161616164 -1.0 0.0
0.6363636363636365 -1.0 0.0
0.6565656565656568 -1.0 0.0
0.6767676767676769 -1.0 0.0
0.696969696969697 -1.0 0.0
0.7171717171717173 -1.0 0.0
0.7373737373737375 -1.0 0.0
0.7575757575757578 -1.0 0.0
0.7777777777777779 -1.0 0.0
0.7979797979797982 -1.0 0.0
0.8181818181818183 -1.0 0.0
0.8383838383838385 -1.0 0.0
0.8585858585858588 -1.0 0.0
0.8787878787878789 -1.0 0.0
0.8989898989898992 -1.0 0.0
0.9191919191919193 -1.0 0.0
0.9393939393939394 -1.0 0.0
0.9595959595959598 -1.0 0.0
0.9797979797979799 -1.0 0.0
1.0 -1.0 0.0
-1.0 -0.9797979797979798 0.0
-0.9797979797979798 -0.9797979797979798 0.0
-0.9595959595959596 -0.9797979797979798 0.0
-0.9393939393939394 -0.9797979797979798 0.0
-0.9191919191919192 -0.9797979797979798 0.0
-0.898989898989899 -0.9797979797979798 0.0
-0.8787878787878788 -0.9797979797979798 0.0
-0.8585858585858586 -0.9797979797979798 0.0
-0.8383838383838383 -0.9797979797979798 0.0
-0.8181818181818181 -0.9797979797979798 0.0
-0.797979797979798 -0.9797979797979798 0.0
-0.7777777777777778 -0.9797979797979798 0.0
-0.7575757575757576 -0.9797979797979798 0.0
-0.7373737373737373 -0.9797979797979798 0.0
-0.7171717171717171 -0.9797979797979798 0.0
-0.696969696969697 -0.9797979797979798 0.0
-0.6767676767676767 -0.9797979797979798 0.0
-0.6565656565656566 -0.9797979797979798 0.0
-0.6363636363636364 -0.9797979797979798 0.0
-0.6161616161616161 -0.9797979797979798 0.0
-0.5959595959595959 -0.9797979797979798 0.0
-0.5757575757575757 -0.9797979797979798 0.0
-0.5555555555555556 -0.9797979797979798 0.0
-0.5353535353535352 -0.9797979797979798 0.0
-0.5151515151515151 -0.9797979797979798 0.0
-0.4949494949494949 -0.9797979797979798 0.0
-0.4747474747474747 -0.9797979797979798 0.0
-0.4545454545454545 -0.9797979797979798 0.0
-0.43434343434343425 -0.9797979797979798 0.0
-0.41414141414141414 -0.9797979797979798 0.0
-0.3939393939393939 -0.9797979797979798 0.0
-0.3737373737373737 -0.9797979797979798 0.0
-0.3535353535353535 -0.9797979797979798 0.0
-0.33333333333333326 -0.9797979797979798 0.0
-0.31313131313131304 -0.9797979797979798 0.0
-0.2929292929292928 -0.9797979797979798 0.0
-0.2727272727272727 -0.9797979797979798 0.0
-0.2525252525252525 -0.9797979797979798 0.0
-0.23232323232323226 -0.9797979797979798 0.0
-0.21212121212121204 -0.9797979797979798 0.0
-0.19191919191919182 -0.9797979797979798 0.0
-0.1717171717171716 -0.9797979797979798 0.0
-0.1515151515151515 -0.9797979797979798 0.0
-0.13131313131313127 -0.9797979797979798 0.0
-0.11111111111111105 -0.9797979797979798 0.0
-0.09090909090909083 -0.9797979797979798 0.0
-0.07070707070707061 -0.9797979797979798 0.0
-0.050505050505050386 -0.9797979797979798 0.0
-0.030303030303030276 -0.9797979797979798 0.0
-0.010101010101010055 -0.9797979797979798 0.0
0.010101010101010166 -0.9797979797979798 0.0
0.030303030303030498 -0.9797979797979798 0.0
0.05050505050505061 -0.9797979797979798 0.0
0.07070707070707072 -0.9797979797979798 0.0
0.09090909090909105 -0.9797979797979798 0.0
0.11111111111111116 -0.9797979797979798 0.0
0.1313131313131315 -0.9797979797979798 0.0
0.1515151515151516 -0.9797979797979798 0.0
0.1717171717171717 -0.9797979797979798 0.0
0.19191919191919204 -0.9797979797979798 0.0
0.21212121212121215 -0.9797979797979798 0.0
0.2323232323232325 -0.9797979797979798 0.0
0.2525252525252526 -0.9797979797979798 0.0
0.27272727272727293 -0.9797979797979798 0.0
0.29292929292929304 -0.9797979797979798 0.0
0.31313131313131315 -0.9797979797979798 0.0
0.3333333333333335 -0.9797979797979798 0.0
0.3535353535353536 -0.9797979797979798 0.0
0.3737373737373739 -0.9797979797979798 0.0
0.39393939393939403 -0.9797979797979798 0.0
0.41414141414141437 -0.9797979797979798 0.0
0.4343434343434345 -0.9797979797979798 0.0
0.4545454545454546 -0.9797979797979798 0.0
0.4747474747474749 -0.9797979797979798 0.0
0.49494949494949503 -0.9797979797979798 0.0
0.5151515151515154 -0.9797979797979798 0.0
0.5353535353535355 -0.9797979797979798 0.0
0.5555555555555556 -0.9797979797979798 0.0
0.5757575757575759 -0.9797979797979798 0.0
0.595959595959596 -0.9797979797979798 0.0
0.6161616161616164 -0.9797979797979798 0.0
0.6363636363636365 -0.9797979797979798 0.0
0.6565656565656568 -0.9797979797979798 0.0
0.6767676767676769 -0.9797979797979798 0.0
0.696969696969697 -0.9797979797979798 0.0
0.7171717171717173 -0.9797979797979798 0.0
0.7373737373737375 -0.9797979797979798 0.0
0.7575757575757578 -0.9797979797979798 0.0
0.7777777777777779 -0.9797979797979798 0.0
0.7979797979797982 -0.9797979797979798 0.0
0.8181818181818183 -0.9797979797979798 0.0
0.8383838383838385 -0.9797979797979798 0.0
0.8585858585858588 -0.9797979797979798 0.0
0.8787878787878789 -0.9797979797979798 0.0
0.8989898989898992 -0.9797979797979798 0.0
0.9191919191919193 -0.9797979797979798 0.0
0.9393939393939394 -0.9797979797979798 0.0
0.9595959595959598 -0.9797979797979798 0.0
0.9797979797979799 -0.9797979797979798 0.0
1.0 -0.9797979797979798 0.0
-1.0 -0.9595959595959596 0.0
-0.9797979797979798 -0.9595959595959596 0.0
-0.9595959595959596 -0.9595959595959596 0.0
-0.9393939393939394 -0.9595959595959596 0.0
-0.9191919191919192 -0.9595959595959596 0.0
-0.898989898989899 -0.9595959595959596 0.0
-0.8787878787878788 -0.9595959595959596 0.0
-0.8585858585858586 -0.9595959595959596 0.0
-0.8383838383838383 -0.9595959595959596 0.0
-0.8181818181818181 -0.9595959595959596 0.0
-0.797979797979798 -0.9595959595959596 0.0
-0.7777777777777778 -0.9595959595959596 0.0
-0.7575757575757576 -0.9595959595959596 0.0
-0.7373737373737373 -0.9595959595959596 0.0
-0.7171717171717171 -0.9595959595959596 0.0
-0.696969696969697 -0.9595959595959596 0.0
-0.6767676767676767 -0.9595959595959596 0.0
-0.6565656565656566 -0.9595959595959596 0.0
-0.6363636363636364 -0.9595959595959596 0.0
-0.6161616161616161 -0.9595959595959596 0.0
-0.5959595959595959 -0.9595959595959596 0.0
-0.5757575757575757 -0.9595959595959596 0.0
-0.5555555555555556 -0.9595959595959596 0.0
-0.5353535353535352 -0.9595959595959596 0.0
-0.5151515151515151 -0.9595959595959596 0.0
-0.4949494949494949 -0.9595959595959596 0.0
-0.4747474747474747 -0.9595959595959596 0.0
-0.4545454545454545 -0.9595959595959596 0.0
-0.43434343434343425 -0.9595959595959596 0.0
-0.41414141414141414 -0.9595959595959596 0.0
-0.3939393939393939 -0.9595959595959596 0.0
-0.3737373737373737 -0.9595959595959596 0.0
-0.3535353535353535 -0.9595959595959596 0.0
-0.33333333333333326 -0.9595959595959596 0.0
-0.31313131313131304 -0.9595959595959596 0.0
-0.2929292929292928 -0.9595959595959596 0.0
-0.2727272727272727 -0.9595959595959596 0.0
-0.2525252525252525 -0.9595959595959596 0.0
-0.23232323232323226 -0.9595959595959596 0.0
-0.21212121212121204 -0.9595959595959596 0.0
-0.19191919191919182 -0.9595959595959596 0.0
-0.1717171717171716 -0.9595959595959596 0.0
-0.1515151515151515 -0.9595959595959596 0.0
-0.13131313131313127 -0.9595959595959596 0.0
-0.11111111111111105 -0.9595959595959596 0.0
-0.09090909090909083 -0.9595959595959596 0.0
-0.07070707070707061 -0.9595959595959596 0.0
-0.050505050505050386 -0.9595959595959596 0.0
-0.030303030303030276 -0.9595959595959596 0.0
-0.010101010101010055 -0.9595959595959596 0.0
0.010101010101010166 -0.9595959595959596 0.0
0.030303030303030498 -0.9595959595959596 0.0
0.05050505050505061 -0.9595959595959596 0.0
0.07070707070707072 -0.9595959595959596 0.0
0.09090909090909105 -0.9595959595959596 0.0
0.11111111111111116 -0.9595959595959596 0.0
0.1313131313131315 -0.9595959595959596 0.0
0.1515151515151516 -0.9595959595959596 0.0
0.1717171717171717 -0.9595959595959596 0.0
0.19191919191919204 -0.9595959595959596 0.0
0.21212121212121215 -0.9595959595959596 0.0
[...]
POINT_DATA 10000
SCALARS u float 1
LOOKUP_TABLE default
5.829334259033203e-05
5.605816841125488e-05
5.4135918617248535e-05
5.2675604820251465e-05
5.148351192474365e-05
5.061924457550049e-05
4.9933791160583496e-05
4.953145980834961e-05
4.9233436584472656e-05
4.906952381134033e-05
4.89354133605957e-05
4.890561103820801e-05
4.884600639343262e-05
4.8741698265075684e-05
4.86522912979126e-05
4.845857620239258e-05
4.8294663429260254e-05
4.798173904418945e-05
4.7773122787475586e-05
4.7519803047180176e-05
4.725158214569092e-05
4.7072768211364746e-05
4.70280647277832e-05
4.713237285614014e-05
4.738569259643555e-05
4.7907233238220215e-05
4.869699478149414e-05
4.982948303222656e-05
5.131959915161133e-05
5.313754081726074e-05
5.543231964111328e-05
5.805492401123047e-05
6.113946437835693e-05
6.467103958129883e-05
6.848573684692383e-05
7.270276546478271e-05
7.718801498413086e-05
8.183717727661133e-05
8.659064769744873e-05
9.143352508544922e-05
9.618699550628662e-05
0.00010073184967041016
0.00010502338409423828
0.00010886788368225098
0.00011223554611206055
0.00011493265628814697
0.00011686980724334717
0.00011801719665527344
0.00011818110942840576
0.00011733174324035645
0.00011545419692993164
0.0001125633716583252
0.00010852515697479248
0.00010353326797485352
9.752810001373291e-05
9.06139612197876e-05
8.291006088256836e-05
7.450580596923828e-05
6.549060344696045e-05
5.595386028289795e-05
4.598498344421387e-05
3.56137752532959e-05
2.4899840354919434e-05
1.3947486877441406e-05
2.7865171432495117e-06
-8.538365364074707e-06
-1.9848346710205078e-05
-3.106892108917236e-05
-4.209578037261963e-05
-5.285441875457764e-05
-6.310641765594482e-05
-7.289648056030273e-05
-8.203089237213135e-05
-9.050965309143066e-05
-9.82135534286499e-05
-0.00010509788990020752
-0.00011099874973297119
-0.00011597573757171631
-0.00011996924877166748
-0.00012293457984924316
-0.00012506544589996338
-0.00012639164924621582
-0.0001271665096282959
-0.00012752413749694824
-0.00012780725955963135
-0.00012812018394470215
-0.00012877583503723145
-0.00012993812561035156
-0.00013177096843719482
-0.00013431906700134277
-0.00013768672943115234
-0.0001418590545654297
-0.00014688074588775635
-0.0001525282859802246
-0.00015872716903686523
-0.00016532838344573975
-0.00017227232456207275
-0.0001793503761291504
-0.00018633902072906494
-0.00019310414791107178
6.155669689178467e-05
5.967915058135986e-05
5.817413330078125e-05
5.702674388885498e-05
5.6117773056030273e-05
5.5462121963500977e-05
5.501508712768555e-05
5.473196506500244e-05
5.456805229187012e-05
5.447864532470703e-05
5.4448843002319336e-05
5.431473255157471e-05
5.418062210083008e-05
5.40316104888916e-05
5.3688883781433105e-05
5.336105823516846e-05
5.300343036651611e-05
5.24669885635376e-05
5.196034908294678e-05
5.142390727996826e-05
5.0961971282958984e-05
5.0455331802368164e-05
5.0127506256103516e-05
4.996359348297119e-05
4.9948692321777344e-05
5.0202012062072754e-05
5.073845386505127e-05
5.157291889190674e-05
5.27501106262207e-05
5.43445348739624e-05
5.6296586990356445e-05
5.869567394256592e-05
6.151199340820312e-05
6.468594074249268e-05
6.827712059020996e-05
7.224082946777344e-05
7.639825344085693e-05
8.088350296020508e-05
8.5487961769104e-05
9.012222290039062e-05
9.483098983764648e-05
9.928643703460693e-05
0.00010353326797485352
0.00010737776756286621
0.00011084973812103271
0.00011360645294189453
0.0001156926155090332
0.00011706352233886719
0.00011739134788513184
0.00011688470840454102
0.00011533498764038086
0.00011266767978668213
0.00010898709297180176
0.00010432302951812744
9.864568710327148e-05
9.213387966156006e-05
8.475780487060547e-05
7.669627666473389e-05
6.811320781707764e-05
5.899369716644287e-05
4.939734935760498e-05
3.936886787414551e-05
2.89231538772583e-05
1.8090009689331055e-05
6.9141387939453125e-06
-4.589557647705078e-06
-1.621246337890625e-05
-2.7954578399658203e-05
-3.954768180847168e-05
-5.0902366638183594e-05
-6.185472011566162e-05
-7.218122482299805e-05
-8.17030668258667e-05
-9.040534496307373e-05
-9.828805923461914e-05
-0.00010509788990020752
-0.00011095404624938965
-0.00011578202247619629
-0.00011955201625823975
-0.0001223832368850708
-0.00012440979480743408
-0.00012570619583129883
-0.0001264810562133789
-0.0001269131898880005
-0.0001271963119506836
-0.00012761354446411133
-0.00012823939323425293
-0.00012940168380737305
-0.00013113021850585938
-0.00013352930545806885
-0.00013674795627593994
-0.00014072656631469727
-0.00014542043209075928
-0.00015076994895935059
-0.00015670061111450195
-0.0001630634069442749
-0.00016970932483673096
-0.00017648935317993164
-0.00018331408500671387
-0.00018993020057678223
6.45667314529419e-05
6.301701068878174e-05
6.183981895446777e-05
6.0930848121643066e-05
6.0245394706726074e-05
5.981326103210449e-05
5.945563316345215e-05
5.924701690673828e-05
5.9098005294799805e-05
5.900859832763672e-05
5.879998207092285e-05
5.866587162017822e-05
5.836784839630127e-05
5.7950615882873535e-05
5.7443976402282715e-05
5.6803226470947266e-05
5.6117773056030273e-05
5.5342912673950195e-05
5.447864532470703e-05
5.364418029785156e-05
5.2794814109802246e-05
5.2034854888916016e-05
5.136430263519287e-05
5.08427619934082e-05
5.047023296356201e-05
5.047023296356201e-05
5.0634145736694336e-05
5.11854887008667e-05
5.2094459533691406e-05
5.334615707397461e-05
5.50001859664917e-05
5.714595317840576e-05
5.961954593658447e-05
6.249547004699707e-05
6.584823131561279e-05
6.952881813049316e-05
7.353723049163818e-05
7.776916027069092e-05
8.22991132736206e-05
8.67694616317749e-05
9.132921695709229e-05
9.587407112121582e-05
0.0001001209020614624
0.00010411441326141357
0.00010770559310913086
0.00011070072650909424
0.00011307001113891602
0.0001147240400314331
0.00011545419692993164
0.00011530518531799316
0.00011414289474487305
0.0001119375228881836
0.00010861456394195557
0.00010439753532409668
9.916722774505615e-05
9.301304817199707e-05
8.612871170043945e-05
7.857382297515869e-05
7.040798664093018e-05
6.176531314849854e-05
5.272030830383301e-05
4.315376281738281e-05
3.319978713989258e-05
2.275407314300537e-05
1.1906027793884277e-05
6.109476089477539e-07
-1.1086463928222656e-05
-2.2977590560913086e-05
-3.489851951599121e-05
-4.667043685913086e-05
-5.8025121688842773e-05
-6.881356239318848e-05
-7.881224155426025e-05
-8.784234523773193e-05
-9.587407112121582e-05
-0.00010286271572113037
-0.0001087486743927002
-0.00011359155178070068
-0.00011739134788513184
-0.00012028217315673828
-0.00012236833572387695
-0.00012376904487609863
-0.00012470781803131104
-0.00012530386447906494
-0.00012587010860443115
-0.00012643635272979736
-0.0001272261142730713
-0.00012843310832977295
-0.00013017654418945312
-0.00013259053230285645
-0.00013568997383117676
-0.00013953447341918945
-0.00014400482177734375
-0.00014919042587280273
-0.000154837965965271
-0.00016094744205474854
-0.00016736984252929688
-0.00017403066158294678
-0.00018061697483062744
-0.00018705427646636963
6.724894046783447e-05
6.604194641113281e-05
6.505846977233887e-05
6.434321403503418e-05
6.383657455444336e-05
6.344914436340332e-05
6.319582462310791e-05
6.295740604400635e-05
6.271898746490479e-05
6.249547004699707e-05
6.213784217834473e-05
6.175041198730469e-05
6.119906902313232e-05
6.051361560821533e-05
5.9664249420166016e-05
5.875527858734131e-05
5.768239498138428e-05
5.650520324707031e-05
5.525350570678711e-05
5.404651165008545e-05
5.2809715270996094e-05
5.1647424697875977e-05
5.067884922027588e-05
4.9814581871032715e-05
4.9114227294921875e-05
4.8726797103881836e-05
4.859268665313721e-05
4.881620407104492e-05
4.938244819641113e-05
5.033612251281738e-05
5.170702934265137e-05
5.352497100830078e-05
5.568563938140869e-05
5.8338046073913574e-05
6.13778829574585e-05
6.479024887084961e-05
6.860494613647461e-05
7.265806198120117e-05
7.69495964050293e-05
8.13603401184082e-05
8.593499660491943e-05
9.042024612426758e-05
9.480118751525879e-05
9.892880916595459e-05
0.0001027137041091919
0.00010605156421661377
0.00010876357555389404
0.00011081993579864502
0.00011205673217773438
0.00011236965656280518
0.00011174380779266357
0.00011008977890014648
0.00010737776756286621
0.0001036524772644043
9.892880916595459e-05
9.334087371826172e-05
8.694827556610107e-05
7.988512516021729e-05
7.227063179016113e-05
6.420910358428955e-05
5.5670738220214844e-05
4.680454730987549e-05
3.74913215637207e-05
2.771615982055664e-05
1.7434358596801758e-05
6.586313247680664e-06
-4.738569259643555e-06
-1.6435980796813965e-05
-2.835690975189209e-05
-4.023313522338867e-05
-5.1841139793395996e-05
-6.285309791564941e-05
-7.316470146179199e-05
-8.256733417510986e-05
-9.086728096008301e-05
-9.800493717193604e-05
-0.00010409951210021973
-0.00010910630226135254
-0.00011307001113891602
-0.00011624395847320557
-0.00011855363845825195
-0.00012037158012390137
-0.00012163817882537842
-0.00012262165546417236
-0.00012350082397460938
-0.00012440979480743408
-0.00012549757957458496
-0.00012694299221038818
-0.00012886524200439453
-0.00013136863708496094
-0.0001344233751296997
-0.00013817846775054932
-0.00014260411262512207
-0.0001475512981414795
-0.00015310943126678467
-0.00015906989574432373
-0.00016532838344573975
-0.00017173588275909424
-0.00017817318439483643
-0.00018447637557983398
6.970763206481934e-05
6.864964962005615e-05
6.781518459320068e-05
6.724894046783447e-05
6.677210330963135e-05
6.636977195739746e-05
6.607174873352051e-05
6.577372550964355e-05
6.535649299621582e-05
6.493926048278809e-05
6.431341171264648e-05
6.362795829772949e-05
6.271898746490479e-05
6.164610385894775e-05
6.0439109802246094e-05
5.906820297241211e-05
5.754828453063965e-05
5.601346492767334e-05
5.435943603515625e-05
5.27501106262207e-05
5.1155686378479004e-05
4.957616329193115e-05
4.8220157623291016e-05
4.698336124420166e-05
4.602968692779541e-05
4.526972770690918e-05
4.486739635467529e-05
4.48077917098999e-05
4.501640796661377e-05
4.564225673675537e-05
4.6759843826293945e-05
4.824995994567871e-05
5.015730857849121e-05
5.24669885635376e-05
5.519390106201172e-05
5.838274955749512e-05
6.183981895446777e-05
6.572902202606201e-05
6.985664367675781e-05
7.414817810058594e-05
7.857382297515869e-05
8.307397365570068e-05
8.754432201385498e-05
9.182095527648926e-05
9.587407112121582e-05
9.94950532913208e-05
0.00010272860527038574
0.00010523200035095215
0.00010706484317779541
0.00010804831981658936
0.00010803341865539551
0.0001070946455001831
0.00010509788990020752
0.00010204315185546875
9.801983833312988e-05
9.304285049438477e-05
8.729100227355957e-05
8.082389831542969e-05
7.382035255432129e-05
6.629526615142822e-05
5.8457255363464355e-05
5.0202012062072754e-05
4.16487455368042e-05
3.2648444175720215e-05
2.3126602172851562e-05
1.3083219528198242e-05
2.4139881134033203e-06
-8.732080459594727e-06
-2.0310282707214355e-05
-3.1948089599609375e-05
-4.3511390686035156e-05
-5.459785461425781e-05
-6.504356861114502e-05
-7.459521293640137e-05
-8.310377597808838e-05
-9.055435657501221e-05
-9.682774543762207e-05
-0.00010214745998382568
-0.00010648369789123535
-0.00011004507541656494
-0.0001128166913986206
-0.0001150369644165039
-0.00011692941188812256
-0.00011847913265228271
-0.00011992454528808594
-0.00012139976024627686
-0.00012293457984924316
-0.00012479722499847412
-0.00012704730033874512
-0.00012971460819244385
-0.00013293325901031494
-0.0001367330551147461
-0.0001411139965057373
-0.00014607608318328857
-0.00015142560005187988
-0.0001573115587234497
-0.0001634061336517334
-0.00016966462135314941
-0.00017601251602172852
-0.00018228590488433838
7.180869579315186e-05
7.092952728271484e-05
7.018446922302246e-05
6.96033239364624e-05
6.909668445587158e-05
6.864964962005615e-05
6.821751594543457e-05
6.765127182006836e-05
6.702542304992676e-05
6.628036499023438e-05
6.537139415740967e-05
6.42240047454834e-05
6.29723072052002e-05
6.142258644104004e-05
5.97834587097168e-05
5.798041820526123e-05
5.6043267250061035e-05
5.40316104888916e-05
5.199015140533447e-05
4.988908767700195e-05
4.7907233238220215e-05
4.6059489250183105e-05
4.436075687408447e-05
4.287064075469971e-05
4.1544437408447266e-05
4.050135612487793e-05
3.986060619354248e-05
3.9458274841308594e-05
3.94284725189209e-05
3.978610038757324e-05
4.057586193084717e-05
4.1738152503967285e-05
4.334747791290283e-05
4.537403583526611e-05
4.780292510986328e-05
5.0634145736694336e-05
5.380809307098389e-05
5.735456943511963e-05
6.124377250671387e-05
6.541609764099121e-05
6.972253322601318e-05
7.417798042297363e-05
7.870793342590332e-05
8.310377597808838e-05
8.736550807952881e-05
9.132921695709229e-05
9.50247049331665e-05
9.810924530029297e-05
0.00010053813457489014
0.00010225176811218262
0.00010310113430023193
0.0001029670238494873
0.00010186433792114258
9.973347187042236e-05
9.652972221374512e-05
9.247660636901855e-05
8.74549150466919e-05
8.17030668258667e-05
7.531046867370605e-05
6.847083568572998e-05
6.124377250671387e-05
5.364418029785156e-05
4.57763671875e-05
3.7550926208496094e-05
2.893805503845215e-05
1.9758939743041992e-05
1.004338264465332e-05
-3.2782554626464844e-07
-1.119077205657959e-05
-2.232193946838379e-05
-3.345310688018799e-05
-4.436075687408447e-05
-5.46872615814209e-05
-6.42240047454834e-05
-7.286667823791504e-05
-8.046627044677734e-05
-8.700788021087646e-05
-9.265542030334473e-05
-9.742379188537598e-05
-0.00010147690773010254
-0.00010485947132110596
-0.00010780990123748779
-0.00011040270328521729
-0.00011277198791503906
-0.00011497735977172852
-0.00011713802814483643
-0.00011937320232391357
-0.00012177228927612305
-0.00012451410293579102
-0.00012756884098052979
-0.0001310408115386963
-0.00013500452041625977
-0.00013945996761322021
-0.00014442205429077148
-0.00014981627464294434
-0.00015559792518615723
-0.00016161799430847168
-0.00016783177852630615
-0.00017412006855010986
-0.00018034875392913818
7.361173629760742e-05
7.277727127075195e-05
7.207691669464111e-05
7.145106792449951e-05
7.084012031555176e-05
7.021427154541016e-05
6.951391696929932e-05
6.86943531036377e-05
6.777048110961914e-05
6.660819053649902e-05
6.525218486785889e-05
6.368756294250488e-05
6.192922592163086e-05
5.996227264404297e-05
5.78761100769043e-05
5.555152893066406e-05
5.322694778442383e-05
5.075335502624512e-05
4.83095645904541e-05
4.591047763824463e-05
4.361569881439209e-05
4.1425228118896484e-05
3.9458274841308594e-05
3.769993782043457e-05
3.6150217056274414e-05
3.491342067718506e-05
3.3989548683166504e-05
3.337860107421875e-05
3.3155083656311035e-05
3.325939178466797e-05
3.381073474884033e-05
3.466010093688965e-05
3.597140312194824e-05
3.7670135498046875e-05
3.972649574279785e-05
4.2244791984558105e-05
4.5105814933776855e-05
4.8354268074035645e-05
5.1915645599365234e-05
5.583465099334717e-05
5.9992074966430664e-05
6.429851055145264e-05
6.879866123199463e-05
7.331371307373047e-05
7.776916027069092e-05
8.207559585571289e-05
8.620321750640869e-05
8.986890316009521e-05
9.304285049438477e-05
9.550154209136963e-05
9.72747802734375e-05
9.813904762268066e-05
9.804964065551758e-05
9.700655937194824e-05
9.492039680480957e-05
9.194016456604004e-05
8.796155452728271e-05
8.320808410644531e-05
7.766485214233398e-05
7.15106725692749e-05
6.4849853515625e-05
5.7891011238098145e-05
5.05596399307251e-05
4.3064355850219727e-05
3.5196542739868164e-05
2.6911497116088867e-05
1.8015503883361816e-05
8.612871170043945e-06
-1.3560056686401367e-06
-1.1682510375976562e-05
-2.218782901763916e-05
-3.261864185333252e-05
-4.25875186920166e-05
-5.1915645599365234e-05
-6.0439109802246094e-05
-6.814301013946533e-05
-7.487833499908447e-05
-8.085370063781738e-05
-8.605420589447021e-05
-9.062886238098145e-05
-9.47415828704834e-05
-9.851157665252686e-05
-0.0001020282506942749
-0.00010533630847930908
-0.00010849535465240479
-0.00011153519153594971
-0.00011467933654785156
-0.00011785328388214111
-0.00012123584747314453
-0.00012479722499847412
-0.00012862682342529297
-0.0001329481601715088
-0.00013752281665802002
-0.0001426488161087036
-0.000148087739944458
-0.00015385448932647705
-0.00015991926193237305
-0.00016614794731140137
-0.00017240643501281738
-0.0001785755157470703
7.511675357818604e-05
7.423758506774902e-05
7.352232933044434e-05
7.271766662597656e-05
7.191300392150879e-05
7.109344005584717e-05
7.003545761108398e-05
6.887316703796387e-05
6.748735904693604e-05
6.590783596038818e-05
6.407499313354492e-05
6.204843521118164e-05
5.981326103210449e-05
5.7369470596313477e-05
5.4717063903808594e-05
5.204975605010986e-05
4.9248337745666504e-05
4.641711711883545e-05
4.363059997558594e-05
4.096329212188721e-05
3.838539123535156e-05
3.603100776672363e-05
3.3855438232421875e-05
3.193318843841553e-05
3.026425838470459e-05
2.8893351554870605e-05
2.7865171432495117e-05
2.7105212211608887e-05
2.6717782020568848e-05
2.6628375053405762e-05
2.6911497116088867e-05
2.759695053100586e-05
2.8580427169799805e-05
2.995133399963379e-05
3.170967102050781e-05
3.387033939361572e-05
3.635883331298828e-05
3.929436206817627e-05
4.2572617530822754e-05
4.6119093894958496e-05
5.005300045013428e-05
5.424022674560547e-05
5.866587162017822e-05
6.324052810668945e-05
6.788969039916992e-05
7.25090503692627e-05
7.703900337219238e-05
8.128583431243896e-05
8.510053157806396e-05
8.843839168548584e-05
9.109079837799072e-05
9.296834468841553e-05
9.40859317779541e-05
9.435415267944336e-05
9.378790855407715e-05
9.226799011230469e-05
8.983910083770752e-05
8.635222911834717e-05
8.20159912109375e-05
7.677078247070312e-05
7.08550214767456e-05
6.431341171264648e-05
5.7443976402282715e-05
5.033612251281738e-05
4.2945146560668945e-05
3.516674041748047e-05
2.6986002922058105e-05
1.8388032913208008e-05
9.253621101379395e-06
-2.2351741790771484e-07
-9.998679161071777e-06
-1.9744038581848145e-05
-2.92360782623291e-05
-3.813207149505615e-05
-4.6446919441223145e-05
-5.4001808166503906e-05
-6.085634231567383e-05
-6.701052188873291e-05
-7.259845733642578e-05
-7.778406143188477e-05
-8.265674114227295e-05
-8.729100227355957e-05
-9.176135063171387e-05
-9.615719318389893e-05
-0.00010034441947937012
-0.000104561448097229
-0.0001087188720703125
-0.00011283159255981445
-0.0001169443130493164
-0.00012131035327911377
-0.00012573599815368652
-0.00013040006160736084
-0.00013531744480133057
-0.00014071166515350342
-0.00014631450176239014
-0.00015217065811157227
-0.0001583099365234375
-0.00016452372074127197
-0.00017084181308746338
-0.00017708539962768555
7.617473602294922e-05
7.526576519012451e-05
7.434189319610596e-05
7.337331771850586e-05
7.231533527374268e-05
7.107853889465332e-05
6.964802742004395e-05
6.80088996887207e-05
6.620585918426514e-05
6.411969661712646e-05
6.179511547088623e-05
5.9276819229125977e-05
5.6490302085876465e-05
5.364418029785156e-05
5.058944225311279e-05
4.750490188598633e-05
4.431605339050293e-05
4.121661186218262e-05
3.8236379623413086e-05
3.528594970703125e-05
3.263354301452637e-05
3.014504909515381e-05
2.7939677238464355e-05
2.594292163848877e-05
2.4259090423583984e-05
2.2873282432556152e-05
2.1755695343017578e-05
2.1010637283325195e-05
2.0503997802734375e-05
2.0384788513183594e-05
2.0518898963928223e-05
2.1010637283325195e-05
2.1755695343017578e-05
2.294778823852539e-05
2.440810203552246e-05
2.6270747184753418e-05
2.849102020263672e-05
3.1054019927978516e-05
3.3989548683166504e-05
3.7342309951782227e-05
4.1037797927856445e-05
4.509091377258301e-05
4.9367547035217285e-05
5.4016709327697754e-05
5.879998207092285e-05
6.373226642608643e-05
6.866455078125e-05
7.340312004089355e-05
7.78883695602417e-05
8.194148540496826e-05
8.55177640914917e-05
8.861720561981201e-05
9.110569953918457e-05
9.299814701080322e-05
9.423494338989258e-05
9.47117805480957e-05
9.436905384063721e-05
9.292364120483398e-05
9.03010368347168e-05
8.653104305267334e-05
8.155405521392822e-05
7.553398609161377e-05
6.890296936035156e-05
6.179511547088623e-05
5.4329633712768555e-05
4.6566128730773926e-05
3.8504600524902344e-05
3.014504909515381e-05
2.135336399078369e-05
1.2308359146118164e-05
3.129243850708008e-06
-6.034970283508301e-06
-1.49458646774292e-05
-2.3424625396728516e-05
-3.1381845474243164e-05
-3.8743019104003906e-05
-4.5493245124816895e-05
-5.170702934265137e-05
-5.762279033660889e-05
-6.332993507385254e-05
-6.887316703796387e-05