# vtk DataFile Version 3.0
2D PINN Solution
ASCII
DATASET STRUCTURED_GRID
DIMENSIONS 100 100 1
POINTS 10000 float
-1.0 -1.0 0.0
-0.9797979797979798 -1.0 0.0
-0.9595959595959596 -1.0 0.0
-0.9393939393939394 -1.0 0.0
-0.9191919191919192 -1.0 0.0
-0.898989898989899 -1.0 0.0
-0.8787878787878788 -1.0 0.0
-0.8585858585858586 -1.0 0.0
-0.8383838383838383 -1.0 0.0
-0.8181818181818181 -1.0 0.0
-0.797979797979798 -1.0 0.0
-0.7777777777777778 -1.0 0.0
-0.7575757575757576 -1.0 0.0
-0.7373737373737373 -1.0 0.0
-0.7171717171717171 -1.0 0.0
-0.696969696969697 -1.0 0.0
-0.6767676767676767 -1.0 0.0
-0.6565656565656566 -1.0 0.0
-0.6363636363636364 -1.0 0.0
-0.6161616161616161 -1.0 0.0
-0.5959595959595959 -1.0 0.0
-0.5757575757575757 -1.0 0.0
-0.5555555555555556 -1.0 0.0
-0.5353535353535352 -1.0 0.0
-0.5151515151515151 -1.0 0.0
-0.4949494949494949 -1.0 0.0
-0.4747474747474747 -1.0 0.0
-0.4545454545454545 -1.0 0.0
-0.43434343434343425 -1.0 0.0
-0.41414141414141414 -1.0 0.0
-0.3939393939393939 -1.0 0.0
-0.3737373737373737 -1.0 0.0
-0.3535353535353535 -1.0 0.0
-0.33333333333333326 -1.0 0.0
-0.31313131313131304 -1.0 0.0
-0.2929292929292928 -1.0 0.0
-0.2727272727272727 -1.0 0.0
-0.2525252525252525 -1.0 0.0
-0.23232323232323226 -1.0 0.0
-0.21212121212121204 -1.0 0.0
-0.19191919191919182 -1.0 0.0
-0.1717171717171716 -1.0 0.0
-0.1515151515151515 -1.0 0.0
-0.13131313131313127 -1.0 0.0
-0.11111111111111105 -1.0 0.0
-0.09090909090909083 -1.0 0.0
-0.07070707070707061 -1.0 0.0
-0.050505050505050386 -1.0 0.0
-0.030303030303030276 -1.0 0.0
-0.010101010101010055 -1.0 0.0
0.010101010101010166 -1.0 0.0
0.030303030303030498 -1.0 0.0
0.05050505050505061 -1.0 0.0
0.07070707070707072 -1.0 0.0
0.09090909090909105 -1.0 0.0
0.11111111111111116 -1.0 0.0
0.1313131313131315 -1.0 0.0
0.1515151515151516 -1.0 0.0
0.1717171717171717 -1.0 0.0
0.19191919191919204 -1.0 0.0
0.21212121212121215 -1.0 0.0
0.2323232323232325 -1.0 0.0
0.2525252525252526 -1.0 0.0
0.27272727272727293 -1.0 0.0
0.29292929292929304 -1.0 0.0
0.31313131313131315 -1.0 0.0
0.3333333333333335 -1.0 0.0
0.3535353535353536 -1.0 0.0
0.3737373737373739 -1.0 0.0
0.39393939393939403 -1.0 0.0
0.41414141414141437 -1.0 0.0
0.4343434343434345 -1.0 0.0
0.4545454545454546 -1.0 0.0
0.4747474747474749 -1.0 0.0
0.49494949494949503 -1.0 0.0
0.5151515151515154 -1.0 0.0
0.5353535353535355 -1.0 0.0
0.5555555555555556 -1.0 0.0
0.5757575757575759 -1.0 0.0
0.595959595959596 -1.0 0.0
0.6161616161616164 -1.0 0.0
0.6363636363636365 -1.0 0.0
0.6565656565656568 -1.0 0.0
0.6767676767676769 -1.0 0.0
0.696969696969697 -1.0 0.0
0.7171717171717173 -1.0 0.0
0.7373737373737375 -1.0 0.0
0.7575757575757578 -1.0 0.0
0.7777777777777779 -1.0 0.0
0.7979797979797982 -1.0 0.0
0.8181818181818183 -1.0 0.0
0.8383838383838385 -1.0 0.0
0.8585858585858588 -1.0 0.0
0.8787878787878789 -1.0 0.0
0.8989898989898992 -1.0 0.0
0.9191919191919193 -1.0 0.0
0.9393939393939394 -1.0 0.0
0.9595959595959598 -1.0 0.0
0.9797979797979799 -1.0 0.0
1.0 -1.0 0.0
-1.0 -0.9797979797979798 0.0
-0.9797979797979798 -0.9797979797979798 0.0
-0.9595959595959596 -0.9797979797979798 0.0
-0.9393939393939394 -0.9797979797979798 0.0
-0.9191919191919192 -0.9797979797979798 0.0
-0.898989898989899 -0.9797979797979798 0.0
-0.8787878787878788 -0.9797979797979798 0.0
-0.8585858585858586 -0.9797979797979798 0.0
-0.8383838383838383 -0.9797979797979798 0.0
-0.8181818181818181 -0.9797979797979798 0.0
-0.797979797979798 -0.9797979797979798 0.0
-0.7777777777777778 -0.9797979797979798 0.0
-0.7575757575757576 -0.9797979797979798 0.0
-0.7373737373737373 -0.9797979797979798 0.0
-0.7171717171717171 -0.9797979797979798 0.0
-0.696969696969697 -0.9797979797979798 0.0
-0.6767676767676767 -0.9797979797979798 0.0
-0.6565656565656566 -0.9797979797979798 0.0
-0.6363636363636364 -0.9797979797979798 0.0
-0.6161616161616161 -0.9797979797979798 0.0
-0.5959595959595959 -0.9797979797979798 0.0
-0.5757575757575757 -0.9797979797979798 0.0
-0.5555555555555556 -0.9797979797979798 0.0
-0.5353535353535352 -0.9797979797979798 0.0
-0.5151515151515151 -0.9797979797979798 0.0
-0.4949494949494949 -0.9797979797979798 0.0
-0.4747474747474747 -0.9797979797979798 0.0
-0.4545454545454545 -0.9797979797979798 0.0
-0.43434343434343425 -0.9797979797979798 0.0
-0.41414141414141414 -0.9797979797979798 0.0
-0.3939393939393939 -0.9797979797979798 0.0
-0.3737373737373737 -0.9797979797979798 0.0
-0.3535353535353535 -0.9797979797979798 0.0
-0.33333333333333326 -0.9797979797979798 0.0
-0.31313131313131304 -0.9797979797979798 0.0
-0.2929292929292928 -0.9797979797979798 0.0
-0.2727272727272727 -0.9797979797979798 0.0
-0.2525252525252525 -0.9797979797979798 0.0
-0.23232323232323226 -0.9797979797979798 0.0
-0.21212121212121204 -0.9797979797979798 0.0
-0.19191919191919182 -0.9797979797979798 0.0
-0.1717171717171716 -0.9797979797979798 0.0
-0.1515151515151515 -0.9797979797979798 0.0
-0.13131313131313127 -0.9797979797979798 0.0
-0.11111111111111105 -0.9797979797979798 0.0
-0.09090909090909083 -0.9797979797979798 0.0
-0.07070707070707061 -0.9797979797979798 0.0
-0.050505050505050386 -0.9797979797979798 0.0
-0.030303030303030276 -0.9797979797979798 0.0
-0.010101010101010055 -0.9797979797979798 0.0
0.010101010101010166 -0.9797979797979798 0.0
0.030303030303030498 -0.9797979797979798 0.0
0.05050505050505061 -0.9797979797979798 0.0
0.07070707070707072 -0.9797979797979798 0.0
0.09090909090909105 -0.9797979797979798 0.0
0.11111111111111116 -0.9797979797979798 0.0
0.1313131313131315 -0.9797979797979798 0.0
0.1515151515151516 -0.9797979797979798 0.0
0.1717171717171717 -0.9797979797979798 0.0
0.19191919191919204 -0.9797979797979798 0.0
0.21212121212121215 -0.9797979797979798 0.0
0.2323232323232325 -0.9797979797979798 0.0
0.2525252525252526 -0.9797979797979798 0.0
0.27272727272727293 -0.9797979797979798 0.0
0.29292929292929304 -0.9797979797979798 0.0
0.31313131313131315 -0.9797979797979798 0.0
0.3333333333333335 -0.9797979797979798 0.0
0.3535353535353536 -0.9797979797979798 0.0
0.3737373737373739 -0.9797979797979798 0.0
0.39393939393939403 -0.9797979797979798 0.0
0.41414141414141437 -0.9797979797979798 0.0
0.4343434343434345 -0.9797979797979798 0.0
0.4545454545454546 -0.9797979797979798 0.0
0.4747474747474749 -0.9797979797979798 0.0
0.49494949494949503 -0.9797979797979798 0.0
0.5151515151515154 -0.9797979797979798 0.0
0.5353535353535355 -0.9797979797979798 0.0
0.5555555555555556 -0.9797979797979798 0.0
0.5757575757575759 -0.9797979797979798 0.0
0.595959595959596 -0.9797979797979798 0.0
0.6161616161616164 -0.9797979797979798 0.0
0.6363636363636365 -0.9797979797979798 0.0
0.6565656565656568 -0.9797979797979798 0.0
0.6767676767676769 -0.9797979797979798 0.0
0.696969696969697 -0.9797979797979798 0.0
0.7171717171717173 -0.9797979797979798 0.0
0.7373737373737375 -0.9797979797979798 0.0
0.7575757575757578 -0.9797979797979798 0.0
0.7777777777777779 -0.9797979797979798 0.0
0.7979797979797982 -0.9797979797979798 0.0
0.8181818181818183 -0.9797979797979798 0.0
0.8383838383838385 -0.9797979797979798 0.0
0.8585858585858588 -0.9797979797979798 0.0
0.8787878787878789 -0.9797979797979798 0.0
0.8989898989898992 -0.9797979797979798 0.0
0.9191919191919193 -0.9797979797979798 0.0
0.9393939393939394 -0.9797979797979798 0.0
0.9595959595959598 -0.9797979797979798 0.0
0.9797979797979799 -0.9797979797979798 0.0
1.0 -0.9797979797979798 0.0
-1.0 -0.9595959595959596 0.0
-0.9797979797979798 -0.9595959595959596 0.0
-0.9595959595959596 -0.9595959595959596 0.0
-0.9393939393939394 -0.9595959595959596 0.0
-0.9191919191919192 -0.9595959595959596 0.0
-0.898989898989899 -0.9595959595959596 0.0
-0.8787878787878788 -0.9595959595959596 0.0
-0.8585858585858586 -0.9595959595959596 0.0
-0.8383838383838383 -0.9595959595959596 0.0
-0.8181818181818181 -0.9595959595959596 0.0
-0.797979797979798 -0.9595959595959596 0.0
-0.7777777777777778 -0.9595959595959596 0.0
-0.7575757575757576 -0.9595959595959596 0.0
-0.7373737373737373 -0.9595959595959596 0.0
-0.7171717171717171 -0.9595959595959596 0.0
-0.696969696969697 -0.9595959595959596 0.0
-0.6767676767676767 -0.9595959595959596 0.0
-0.6565656565656566 -0.9595959595959596 0.0
-0.6363636363636364 -0.9595959595959596 0.0
-0.6161616161616161 -0.9595959595959596 0.0
-0.5959595959595959 -0.9595959595959596 0.0
-0.5757575757575757 -0.9595959595959596 0.0
-0.5555555555555556 -0.9595959595959596 0.0
-0.5353535353535352 -0.9595959595959596 0.0
-0.5151515151515151 -0.9595959595959596 0.0
-0.4949494949494949 -0.9595959595959596 0.0
-0.4747474747474747 -0.9595959595959596 0.0
-0.4545454545454545 -0.9595959595959596 0.0
-0.43434343434343425 -0.9595959595959596 0.0
-0.41414141414141414 -0.9595959595959596 0.0
-0.3939393939393939 -0.9595959595959596 0.0
-0.3737373737373737 -0.9595959595959596 0.0
-0.3535353535353535 -0.9595959595959596 0.0
-0.33333333333333326 -0.9595959595959596 0.0
-0.31313131313131304 -0.9595959595959596 0.0
-0.2929292929292928 -0.9595959595959596 0.0
-0.2727272727272727 -0.9595959595959596 0.0
-0.2525252525252525 -0.9595959595959596 0.0
-0.23232323232323226 -0.9595959595959596 0.0
-0.21212121212121204 -0.9595959595959596 0.0
-0.19191919191919182 -0.9595959595959596 0.0
-0.1717171717171716 -0.9595959595959596 0.0
-0.1515151515151515 -0.9595959595959596 0.0
-0.13131313131313127 -0.9595959595959596 0.0
-0.11111111111111105 -0.9595959595959596 0.0
-0.09090909090909083 -0.9595959595959596 0.0
-0.07070707070707061 -0.9595959595959596 0.0
-0.050505050505050386 -0.9595959595959596 0.0
-0.030303030303030276 -0.9595959595959596 0.0
-0.010101010101010055 -0.9595959595959596 0.0
0.010101010101010166 -0.9595959595959596 0.0
0.030303030303030498 -0.9595959595959596 0.0
0.05050505050505061 -0.9595959595959596 0.0
0.07070707070707072 -0.9595959595959596 0.0
0.09090909090909105 -0.9595959595959596 0.0
0.11111111111111116 -0.9595959595959596 0.0
0.1313131313131315 -0.9595959595959596 0.0
0.1515151515151516 -0.9595959595959596 0.0
0.1717171717171717 -0.9595959595959596 0.0
0.19191919191919204 -0.9595959595959596 0.0
0.21212121212121215 -0.9595959595959596 0.0
[...]
POINT_DATA 10000
SCALARS u float 1
LOOKUP_TABLE default
-2.5928020477294922e-05
-3.4615397453308105e-05
-4.315376281738281e-05
-5.131959915161133e-05
-5.926191806793213e-05
-6.681680679321289e-05
-7.402896881103516e-05
-8.088350296020508e-05
-8.726119995117188e-05
-9.328126907348633e-05
-9.88990068435669e-05
-0.00010399520397186279
-0.00010876357555389404
-0.0001131892204284668
-0.00011734664440155029
-0.00012122094631195068
-0.0001249164342880249
-0.00012856721878051758
-0.0001322031021118164
-0.00013583898544311523
-0.00013950467109680176
-0.00014331936836242676
-0.000147208571434021
-0.00015118718147277832
-0.00015525519847869873
-0.0001593083143234253
-0.00016336143016815186
-0.0001675337553024292
-0.00017155706882476807
-0.00017561018466949463
-0.00017952919006347656
-0.0001834779977798462
-0.00018744170665740967
-0.00019143521785736084
-0.00019533932209014893
-0.0001993030309677124
-0.00020323693752288818
-0.0002071857452392578
-0.0002110898494720459
-0.0002148449420928955
-0.0002184361219406128
-0.00022177398204803467
-0.0002247542142868042
-0.00022730231285095215
-0.00022940337657928467
-0.00023099780082702637
-0.0002321004867553711
-0.00023262202739715576
-0.00023247301578521729
-0.00023177266120910645
-0.00023032724857330322
-0.00022837519645690918
-0.00022576749324798584
-0.00022260844707489014
-0.00021891295909881592
-0.00021466612815856934
-0.00020995736122131348
-0.00020487606525421143
-0.00019945204257965088
-0.00019377470016479492
-0.0001878887414932251
-0.00018194317817687988
-0.00017590820789337158
-0.0001700073480606079
-0.00016415119171142578
-0.00015851855278015137
-0.00015310943126678467
-0.00014796853065490723
-0.00014321506023406982
-0.00013877451419830322
-0.00013481080532073975
-0.00013118982315063477
-0.0001281648874282837
-0.00012558698654174805
-0.00012347102165222168
-0.00012195110321044922
-0.00012101233005523682
-0.00012060999870300293
-0.0001207590103149414
-0.00012156367301940918
-0.00012293457984924316
-0.0001249760389328003
-0.00012749433517456055
-0.00013059377670288086
-0.00013415515422821045
-0.000138208270072937
-0.00014261901378631592
-0.00014732778072357178
-0.0001522153615951538
-0.000157088041305542
-0.00016197562217712402
-0.00016660988330841064
-0.0001710057258605957
-0.00017492473125457764
-0.00017833709716796875
-0.00018106400966644287
-0.00018310546875
-0.0001843869686126709
-0.00018477439880371094
-0.0001843273639678955
-2.6166439056396484e-05
-3.4183263778686523e-05
-4.202127456665039e-05
-4.953145980834961e-05
-5.683302879333496e-05
-6.379187107086182e-05
-7.043778896331787e-05
-7.671117782592773e-05
-8.271634578704834e-05
-8.824467658996582e-05
-9.34600830078125e-05
-9.830296039581299e-05
-0.00010275840759277344
-0.00010688602924346924
-0.00011076033115386963
-0.00011444091796875
-0.00011804699897766113
-0.00012156367301940918
-0.00012508034706115723
-0.0001287311315536499
-0.0001325160264968872
-0.0001364201307296753
-0.000140458345413208
-0.00014476478099822998
-0.0001490861177444458
-0.00015357136726379395
-0.00015807151794433594
-0.00016255676746368408
-0.00016708672046661377
-0.00017157196998596191
-0.00017601251602172852
-0.00018037855625152588
-0.0001846998929977417
-0.00018915534019470215
-0.0001935213804244995
-0.00019788742065429688
-0.00020237267017364502
-0.00020682811737060547
-0.00021117925643920898
-0.0002154707908630371
-0.0002195984125137329
-0.000223502516746521
-0.0002270340919494629
-0.00023020803928375244
-0.00023290514945983887
-0.00023502111434936523
-0.00023658573627471924
-0.00023752450942993164
-0.00023780763149261475
-0.00023740530014038086
-0.00023634731769561768
-0.0002346038818359375
-0.0002321004867553711
-0.00022898614406585693
-0.00022524595260620117
-0.0002209693193435669
-0.0002161860466003418
-0.0002110302448272705
-0.00020554661750793457
-0.00019979476928710938
-0.0001939237117767334
-0.00018796324729919434
-0.00018206238746643066
-0.000176161527633667
-0.0001704394817352295
-0.0001649409532546997
-0.00015972554683685303
-0.00015473365783691406
-0.0001500844955444336
-0.00014579296112060547
-0.00014187395572662354
-0.00013837218284606934
-0.00013525784015655518
-0.00013267993927001953
-0.00013045966625213623
-0.00012877583503723145
-0.00012752413749694824
-0.0001268237829208374
-0.00012658536434173584
-0.00012697279453277588
-0.00012788176536560059
-0.00012934207916259766
-0.00013144314289093018
-0.00013399124145507812
-0.00013715028762817383
-0.00014072656631469727
-0.00014476478099822998
-0.00014913082122802734
-0.00015375018119812012
-0.00015844404697418213
-0.00016319751739501953
-0.00016780197620391846
-0.00017216801643371582
-0.00017614662647247314
-0.0001796036958694458
-0.00018249452114105225
-0.00018468499183654785
-0.00018605589866638184
-0.00018665194511413574
-0.0001863539218902588
-2.5734305381774902e-05
-3.30805778503418e-05
-4.0218234062194824e-05
-4.7087669372558594e-05
-5.37186861038208e-05
-6.012618541717529e-05
-6.622076034545898e-05
-7.206201553344727e-05
-7.751584053039551e-05
-8.271634578704834e-05
-8.751451969146729e-05
-9.198486804962158e-05
-9.618699550628662e-05
-0.00010003149509429932
-0.00010369718074798584
-0.00010719895362854004
-0.000110626220703125
-0.00011394917964935303
-0.0001173168420791626
-0.00012095272541046143
-0.0001246929168701172
-0.00012865662574768066
-0.00013287365436553955
-0.00013734400272369385
-0.00014196336269378662
-0.00014673173427581787
-0.00015157461166381836
-0.00015652179718017578
-0.0001614391803741455
-0.00016638636589050293
-0.00017118453979492188
-0.0001760721206665039
-0.00018084049224853516
-0.00018562376499176025
-0.00019043684005737305
-0.00019535422325134277
-0.0002002418041229248
-0.00020521879196166992
-0.00021010637283325195
-0.00021500885486602783
-0.00021973252296447754
-0.00022423267364501953
-0.00022840499877929688
-0.00023220479488372803
-0.00023549795150756836
-0.00023820996284484863
-0.00024031102657318115
-0.0002416670322418213
-0.00024227797985076904
-0.0002421736717224121
-0.00024124979972839355
-0.00023953616619110107
-0.0002371072769165039
-0.00023396313190460205
-0.0002301335334777832
-0.00022570788860321045
-0.00022076070308685303
-0.00021539628505706787
-0.00020979344844818115
-0.00020398199558258057
-0.0001980215311050415
-0.0001920759677886963
-0.00018619000911712646
-0.00018046796321868896
-0.00017492473125457764
-0.00016957521438598633
-0.00016455352306365967
-0.00015985965728759766
-0.0001554042100906372
-0.00015138089656829834
-0.00014767050743103027
-0.00014437735080718994
-0.00014136731624603271
-0.00013887882232666016
-0.000136643648147583
-0.00013487040996551514
-0.0001334846019744873
-0.00013259053230285645
-0.00013214349746704102
-0.00013212859630584717
-0.00013269484043121338
-0.00013381242752075195
-0.0001354217529296875
-0.00013762712478637695
-0.00014027953147888184
-0.00014357268810272217
-0.00014722347259521484
-0.00015123188495635986
-0.00015562772750854492
-0.00016012787818908691
-0.00016479194164276123
-0.00016929209232330322
-0.00017367303371429443
-0.0001776665449142456
-0.00018121302127838135
-0.00018417835235595703
-0.00018647313117980957
-0.00018796324729919434
-0.00018867850303649902
-0.00018846988677978516
-2.4646520614624023e-05
-3.1322240829467773e-05
-3.7789344787597656e-05
-4.410743713378906e-05
-5.0127506256103516e-05
-5.595386028289795e-05
-6.152689456939697e-05
-6.683170795440674e-05
-7.198750972747803e-05
-7.669627666473389e-05
-8.115172386169434e-05
-8.536875247955322e-05
-8.921325206756592e-05
-9.28342342376709e-05
-9.627640247344971e-05
-9.953975677490234e-05
-0.00010278820991516113
-0.00010591745376586914
-0.00010924041271209717
-0.00011272728443145752
-0.00011639297008514404
-0.00012035667896270752
-0.0001246631145477295
-0.00012925267219543457
-0.0001340806484222412
-0.00013913214206695557
-0.00014434754848480225
-0.00014959275722503662
-0.0001548975706100464
-0.00016017258167266846
-0.00016552209854125977
-0.00017076730728149414
-0.00017590820789337158
-0.00018118321895599365
-0.00018642842769622803
-0.00019177794456481934
-0.00019721686840057373
-0.00020268559455871582
-0.00020822882652282715
-0.00021372735500335693
-0.00021916627883911133
-0.0002244114875793457
-0.00022929906845092773
-0.00023379921913146973
-0.00023777782917022705
-0.0002410411834716797
-0.00024364888668060303
-0.00024543702602386475
-0.0002464205026626587
-0.0002465099096298218
-0.00024572014808654785
-0.00024399161338806152
-0.0002415180206298828
-0.00023818016052246094
-0.00023408234119415283
-0.00022940337657928467
-0.00022424757480621338
-0.00021864473819732666
-0.00021278858184814453
-0.00020682811737060547
-0.00020074844360351562
-0.0001948326826095581
-0.00018896162509918213
-0.00018337368965148926
-0.0001779794692993164
-0.00017289817333221436
-0.00016811490058898926
-0.00016370415687561035
-0.00015957653522491455
-0.00015582144260406494
-0.00015240907669067383
-0.0001493394374847412
-0.0001465529203414917
-0.00014416873455047607
-0.0001420527696609497
-0.00014033913612365723
-0.00013893842697143555
-0.00013794004917144775
-0.0001372992992401123
-0.00013718008995056152
-0.00013741850852966309
-0.00013819336891174316
-0.0001394897699356079
-0.00014135241508483887
-0.00014372169971466064
-0.0001465827226638794
-0.0001499950885772705
-0.00015373528003692627
-0.00015787780284881592
-0.00016224384307861328
-0.00016671419143676758
-0.00017118453979492188
-0.0001755356788635254
-0.0001795738935470581
-0.00018317997455596924
-0.00018619000911712646
-0.0001885443925857544
-0.00019019842147827148
-0.00019094347953796387
-0.00019080936908721924
-2.3037195205688477e-05
-2.9087066650390625e-05
-3.489851951599121e-05
-4.0590763092041016e-05
-4.602968692779541e-05
-5.1394104957580566e-05
-5.644559860229492e-05
-6.136298179626465e-05
-6.602704524993896e-05
-7.042288780212402e-05
-7.461011409759521e-05
-7.849931716918945e-05
-8.209049701690674e-05
-8.5487961769104e-05
-8.866190910339355e-05
-9.171664714813232e-05
-9.472668170928955e-05
-9.766221046447754e-05
-0.00010082125663757324
-0.00010421872138977051
-0.00010779500007629395
-0.00011172890663146973
-0.00011602044105529785
-0.00012072920799255371
-0.00012572109699249268
-0.00013099610805511475
-0.00013646483421325684
-0.0001420825719833374
-0.0001477450132369995
-0.00015340745449066162
-0.00015914440155029297
-0.00016470253467559814
-0.00017036497592926025
-0.00017601251602172852
-0.00018174946308135986
-0.0001875460147857666
-0.0001935809850692749
-0.00019966065883636475
-0.00020587444305419922
-0.0002121180295944214
-0.00021833181381225586
-0.000224381685256958
-0.0002301037311553955
-0.00023540854454040527
-0.0002400726079940796
-0.00024403631687164307
-0.0002471655607223511
-0.0002494007349014282
-0.0002506524324417114
-0.0002509504556655884
-0.0002501159906387329
-0.00024837255477905273
-0.0002456754446029663
-0.00024205446243286133
-0.00023767352104187012
-0.00023268163204193115
-0.00022718310356140137
-0.00022123754024505615
-0.00021506845951080322
-0.000208929181098938
-0.00020271539688110352
-0.00019668042659759521
-0.00019082427024841309
-0.0001852959394454956
-0.00018005073070526123
-0.00017520785331726074
-0.00017064809799194336
-0.0001665055751800537
-0.00016267597675323486
-0.00015923380851745605
-0.0001560896635055542
-0.00015328824520111084
-0.0001507401466369629
-0.00014857947826385498
-0.00014670193195343018
-0.00014503300189971924
-0.00014375150203704834
-0.00014275312423706055
-0.00014212727546691895
-0.0001417994499206543
-0.00014191865921020508
-0.00014254450798034668
-0.0001436173915863037
-0.00014512240886688232
-0.000147208571434021
-0.00014986097812652588
-0.00015291571617126465
-0.00015649199485778809
-0.0001604706048965454
-0.0001646578311920166
-0.0001690685749053955
-0.00017346441745758057
-0.00017781555652618408
-0.0001818239688873291
-0.00018545985221862793
-0.00018855929374694824
-0.00019095838069915771
-0.00019265711307525635
-0.00019341707229614258
-0.0001933276653289795
-2.0891427993774414e-05
-2.6345252990722656e-05
-3.1620264053344727e-05
-3.670156002044678e-05
-4.16487455368042e-05
-4.641711711883545e-05
-5.105137825012207e-05
-5.555152893066406e-05
-5.984306335449219e-05
-6.394088268280029e-05
-6.780028343200684e-05
-7.143616676330566e-05
-7.484853267669678e-05
-7.802248001098633e-05
-8.106231689453125e-05
-8.384883403778076e-05
-8.668005466461182e-05
-8.948147296905518e-05
-9.241700172424316e-05
-9.56505537033081e-05
-9.913742542266846e-05
-0.0001030266284942627
-0.00010730326175689697
-0.00011211633682250977
-0.00011722743511199951
-0.0001226961612701416
-0.0001284480094909668
-0.00013433396816253662
-0.00014038383960723877
-0.00014635920524597168
-0.00015239417552947998
-0.00015847384929656982
-0.00016446411609649658
-0.00017054378986358643
-0.00017671287059783936
-0.00018312036991119385
-0.00018964707851409912
-0.00019644200801849365
-0.0002033710479736328
-0.00021041929721832275
-0.00021751224994659424
-0.0002244412899017334
-0.00023117661476135254
-0.00023736059665679932
-0.0002428591251373291
-0.0002475827932357788
-0.00025124847888946533
-0.0002539008855819702
-0.0002554208040237427
-0.0002557486295700073
-0.0002549886703491211
-0.0002529919147491455
-0.000250011682510376
-0.0002460777759552002
-0.00024127960205078125
-0.0002357959747314453
-0.00022986531257629395
-0.00022348761558532715
-0.00021699070930480957
-0.000210493803024292
-0.0002040863037109375
-0.00019787251949310303
-0.00019197165966033936
-0.00018641352653503418
-0.0001812279224395752
-0.0001764744520187378
-0.00017212331295013428
-0.00016817450523376465
-0.0001645982265472412
-0.00016139447689056396
-0.0001585632562637329
-0.00015601515769958496
-0.00015382468700408936
-0.00015188753604888916
-0.00015029311180114746
-0.0001488327980041504
-0.0001477450132369995
-0.0001468360424041748
-0.00014619529247283936
-0.0001459270715713501
-0.00014607608318328857
-0.00014653801918029785
-0.0001474320888519287
-0.00014884769916534424
-0.0001507401466369629
-0.00015316903591156006
-0.00015610456466674805
-0.00015948712825775146
-0.00016327202320098877
-0.00016741454601287842
-0.00017175078392028809
-0.0001761019229888916
-0.00018037855625152588
-0.0001844465732574463
-0.0001881122589111328
-0.00019124150276184082
-0.00019368529319763184
-0.00019541382789611816
-0.00019624829292297363
-0.00019612908363342285
-1.825392246246338e-05
-2.3156404495239258e-05
-2.7835369110107422e-05
-3.243982791900635e-05
-3.68952751159668e-05
-4.121661186218262e-05
-4.5418739318847656e-05
-4.954636096954346e-05
-5.352497100830078e-05
-5.7369470596313477e-05
-6.102025508880615e-05
-6.444752216339111e-05
-6.762146949768066e-05
-7.064640522003174e-05
-7.352232933044434e-05
-7.615983486175537e-05
-7.876753807067871e-05
-8.140504360198975e-05
-8.422136306762695e-05
-8.729100227355957e-05
-9.067356586456299e-05
-9.450316429138184e-05
-9.882450103759766e-05
-0.00010363757610321045
-0.00010889768600463867
-0.00011456012725830078
-0.00012055039405822754
-0.00012677907943725586
-0.00013308227062225342
-0.00013947486877441406
-0.000145837664604187
-0.0001522451639175415
-0.00015869736671447754
-0.00016520917415618896
-0.00017186999320983887
-0.0001787245273590088
-0.00018584728240966797
-0.00019328296184539795
-0.00020100176334381104
-0.00020901858806610107
-0.00021708011627197266
-0.00022515654563903809
-0.00023289024829864502
-0.00024011731147766113
-0.00024653971195220947
-0.0002519935369491577
-0.0002562403678894043
-0.0002592504024505615
-0.00026088953018188477
-0.0002612769603729248
-0.0002603381872177124
-0.00025813281536102295
-0.0002547353506088257
-0.0002502948045730591
-0.00024503469467163086
-0.0002390146255493164
-0.00023245811462402344
-0.00022560358047485352
-0.00021861493587493896
-0.0002117156982421875
-0.00020490586757659912
-0.00019845366477966309
-0.0001923292875289917
-0.00018662214279174805
-0.00018136203289031982
-0.00017659366130828857
-0.0001722872257232666
-0.00016842782497406006
-0.0001650303602218628
-0.00016203522682189941
-0.00015945732593536377
-0.00015722215175628662
-0.00015529990196228027
-0.00015372037887573242
-0.00015236437320709229
-0.00015132129192352295
-0.0001504272222518921
-0.00014984607696533203
-0.00014947354793548584
-0.0001493692398071289
-0.00014951825141906738
-0.0001500546932220459
-0.00015103816986083984
-0.00015234947204589844
-0.00015419721603393555
-0.00015649199485778809
-0.0001593083143234253
-0.00016261637210845947
-0.0001663118600845337
-0.00017039477825164795
-0.00017465651035308838
-0.00017906725406646729
-0.00018334388732910156
-0.00018744170665740967
-0.00019112229347229004
-0.00019432604312896729
-0.00019678473472595215
-0.00019848346710205078
-0.00019931793212890625
-0.00019913911819458008
-1.5273690223693848e-05
-1.9609928131103516e-05
-2.3812055587768555e-05
-2.7865171432495117e-05
-3.1813979148864746e-05
-3.577768802642822e-05
-3.960728645324707e-05
-4.343688488006592e-05
-4.7147274017333984e-05
-5.0768256187438965e-05
-5.424022674560547e-05
-5.754828453063965e-05
-6.058812141418457e-05
-6.346404552459717e-05
-6.617605686187744e-05
-6.876885890960693e-05
-7.125735282897949e-05
-7.37607479095459e-05
-7.642805576324463e-05
-7.936358451843262e-05
-8.265674114227295e-05
-8.64565372467041e-05
-9.080767631530762e-05
-9.56505537033081e-05
-0.00010107457637786865
-0.00010694563388824463
-0.00011320412158966064
-0.00011974573135375977
-0.00012640655040740967
-0.00013315677642822266
-0.00013990700244903564
-0.00014668703079223633
-0.0001535266637802124
-0.00016036629676818848
-0.00016751885414123535
-0.000174790620803833
-0.00018249452114105225
-0.00019057095050811768
-0.00019910931587219238
-0.00020809471607208252
-0.00021733343601226807
-0.00022654235363006592
-0.0002355426549911499
-0.00024387240409851074
-0.0002512931823730469
-0.0002575218677520752
-0.0002623647451400757
-0.00026570260524749756
-0.00026755034923553467
-0.00026778876781463623
-0.00026647746562957764
-0.0002638101577758789
-0.00025995075702667236
-0.0002548694610595703
-0.0002489238977432251
-0.00024227797985076904
-0.0002350062131881714
-0.0002275705337524414
-0.0002199709415435791
-0.00021246075630187988
-0.00020521879196166992
-0.00019827485084533691
-0.0001917630434036255
-0.00018577277660369873
-0.0001802295446395874
-0.00017529726028442383
-0.00017087161540985107
-0.00016701221466064453
-0.0001636594533920288
-0.00016076862812042236
-0.00015839934349060059
-0.0001564323902130127
-0.0001548081636428833
-0.00015366077423095703
-0.00015273690223693848
-0.00015212595462799072
-0.0001516789197921753
-0.00015145540237426758
-0.00015141069889068604
-0.00015166401863098145
-0.00015217065811157227
-0.00015285611152648926
-0.00015395879745483398
-0.00015535950660705566
-0.00015720725059509277
-0.0001595616340637207
-0.0001624077558517456
-0.0001656860113143921
-0.00016942620277404785
-0.00017346441745758057
-0.0001777857542037964
-0.00018218159675598145
-0.0001865774393081665
-0.00019074976444244385
-0.00019447505474090576
-0.0001977086067199707
-0.0002002120018005371
-0.0002018958330154419
-0.00020264089107513428
-0.00020244717597961426
-1.1846423149108887e-05
-1.570582389831543e-05
-1.9416213035583496e-05
-2.3066997528076172e-05
-2.6613473892211914e-05
-3.018975257873535e-05
-3.37064266204834e-05
-3.726780414581299e-05
-4.075467586517334e-05
-4.4226646423339844e-05
-4.756450653076172e-05
-5.081295967102051e-05
-5.383789539337158e-05
-5.666911602020264e-05
-5.933642387390137e-05
-6.182491779327393e-05
-6.428360939025879e-05
-6.674230098724365e-05
-6.935000419616699e-05
-7.21961259841919e-05
-7.538497447967529e-05
-7.918477058410645e-05
-8.355081081390381e-05
-8.852779865264893e-05
-9.41157341003418e-05
-0.00010025501251220703
-0.00010682642459869385
-0.00011369585990905762
-0.0001207590103149414
-0.00012789666652679443
-0.00013500452041625977
-0.00014220178127288818
-0.00014938414096832275
-0.00015653669834136963
-0.00016398727893829346
-0.000171661376953125
-0.00017978250980377197
-0.0001885443925857544
-0.00019791722297668457
-0.00020788609981536865
-0.00021830201148986816
-0.0002288222312927246
-0.00023914873600006104
-0.000248834490776062
-0.00025738775730133057
-0.0002644360065460205