# vtk DataFile Version 3.0
2D PINN Solution
ASCII
DATASET STRUCTURED_GRID
DIMENSIONS 100 100 1
POINTS 10000 float
-1.0 -1.0 0.0
-0.9797979797979798 -1.0 0.0
-0.9595959595959596 -1.0 0.0
-0.9393939393939394 -1.0 0.0
-0.9191919191919192 -1.0 0.0
-0.898989898989899 -1.0 0.0
-0.8787878787878788 -1.0 0.0
-0.8585858585858586 -1.0 0.0
-0.8383838383838383 -1.0 0.0
-0.8181818181818181 -1.0 0.0
-0.797979797979798 -1.0 0.0
-0.7777777777777778 -1.0 0.0
-0.7575757575757576 -1.0 0.0
-0.7373737373737373 -1.0 0.0
-0.7171717171717171 -1.0 0.0
-0.696969696969697 -1.0 0.0
-0.6767676767676767 -1.0 0.0
-0.6565656565656566 -1.0 0.0
-0.6363636363636364 -1.0 0.0
-0.6161616161616161 -1.0 0.0
-0.5959595959595959 -1.0 0.0
-0.5757575757575757 -1.0 0.0
-0.5555555555555556 -1.0 0.0
-0.5353535353535352 -1.0 0.0
-0.5151515151515151 -1.0 0.0
-0.4949494949494949 -1.0 0.0
-0.4747474747474747 -1.0 0.0
-0.4545454545454545 -1.0 0.0
-0.43434343434343425 -1.0 0.0
-0.41414141414141414 -1.0 0.0
-0.3939393939393939 -1.0 0.0
-0.3737373737373737 -1.0 0.0
-0.3535353535353535 -1.0 0.0
-0.33333333333333326 -1.0 0.0
-0.31313131313131304 -1.0 0.0
-0.2929292929292928 -1.0 0.0
-0.2727272727272727 -1.0 0.0
-0.2525252525252525 -1.0 0.0
-0.23232323232323226 -1.0 0.0
-0.21212121212121204 -1.0 0.0
-0.19191919191919182 -1.0 0.0
-0.1717171717171716 -1.0 0.0
-0.1515151515151515 -1.0 0.0
-0.13131313131313127 -1.0 0.0
-0.11111111111111105 -1.0 0.0
-0.09090909090909083 -1.0 0.0
-0.07070707070707061 -1.0 0.0
-0.050505050505050386 -1.0 0.0
-0.030303030303030276 -1.0 0.0
-0.010101010101010055 -1.0 0.0
0.010101010101010166 -1.0 0.0
0.030303030303030498 -1.0 0.0
0.05050505050505061 -1.0 0.0
0.07070707070707072 -1.0 0.0
0.09090909090909105 -1.0 0.0
0.11111111111111116 -1.0 0.0
0.1313131313131315 -1.0 0.0
0.1515151515151516 -1.0 0.0
0.1717171717171717 -1.0 0.0
0.19191919191919204 -1.0 0.0
0.21212121212121215 -1.0 0.0
0.2323232323232325 -1.0 0.0
0.2525252525252526 -1.0 0.0
0.27272727272727293 -1.0 0.0
0.29292929292929304 -1.0 0.0
0.31313131313131315 -1.0 0.0
0.3333333333333335 -1.0 0.0
0.3535353535353536 -1.0 0.0
0.3737373737373739 -1.0 0.0
0.39393939393939403 -1.0 0.0
0.41414141414141437 -1.0 0.0
0.4343434343434345 -1.0 0.0
0.4545454545454546 -1.0 0.0
0.4747474747474749 -1.0 0.0
0.49494949494949503 -1.0 0.0
0.5151515151515154 -1.0 0.0
0.5353535353535355 -1.0 0.0
0.5555555555555556 -1.0 0.0
0.5757575757575759 -1.0 0.0
0.595959595959596 -1.0 0.0
0.6161616161616164 -1.0 0.0
0.6363636363636365 -1.0 0.0
0.6565656565656568 -1.0 0.0
0.6767676767676769 -1.0 0.0
0.696969696969697 -1.0 0.0
0.7171717171717173 -1.0 0.0
0.7373737373737375 -1.0 0.0
0.7575757575757578 -1.0 0.0
0.7777777777777779 -1.0 0.0
0.7979797979797982 -1.0 0.0
0.8181818181818183 -1.0 0.0
0.8383838383838385 -1.0 0.0
0.8585858585858588 -1.0 0.0
0.8787878787878789 -1.0 0.0
0.8989898989898992 -1.0 0.0
0.9191919191919193 -1.0 0.0
0.9393939393939394 -1.0 0.0
0.9595959595959598 -1.0 0.0
0.9797979797979799 -1.0 0.0
1.0 -1.0 0.0
-1.0 -0.9797979797979798 0.0
-0.9797979797979798 -0.9797979797979798 0.0
-0.9595959595959596 -0.9797979797979798 0.0
-0.9393939393939394 -0.9797979797979798 0.0
-0.9191919191919192 -0.9797979797979798 0.0
-0.898989898989899 -0.9797979797979798 0.0
-0.8787878787878788 -0.9797979797979798 0.0
-0.8585858585858586 -0.9797979797979798 0.0
-0.8383838383838383 -0.9797979797979798 0.0
-0.8181818181818181 -0.9797979797979798 0.0
-0.797979797979798 -0.9797979797979798 0.0
-0.7777777777777778 -0.9797979797979798 0.0
-0.7575757575757576 -0.9797979797979798 0.0
-0.7373737373737373 -0.9797979797979798 0.0
-0.7171717171717171 -0.9797979797979798 0.0
-0.696969696969697 -0.9797979797979798 0.0
-0.6767676767676767 -0.9797979797979798 0.0
-0.6565656565656566 -0.9797979797979798 0.0
-0.6363636363636364 -0.9797979797979798 0.0
-0.6161616161616161 -0.9797979797979798 0.0
-0.5959595959595959 -0.9797979797979798 0.0
-0.5757575757575757 -0.9797979797979798 0.0
-0.5555555555555556 -0.9797979797979798 0.0
-0.5353535353535352 -0.9797979797979798 0.0
-0.5151515151515151 -0.9797979797979798 0.0
-0.4949494949494949 -0.9797979797979798 0.0
-0.4747474747474747 -0.9797979797979798 0.0
-0.4545454545454545 -0.9797979797979798 0.0
-0.43434343434343425 -0.9797979797979798 0.0
-0.41414141414141414 -0.9797979797979798 0.0
-0.3939393939393939 -0.9797979797979798 0.0
-0.3737373737373737 -0.9797979797979798 0.0
-0.3535353535353535 -0.9797979797979798 0.0
-0.33333333333333326 -0.9797979797979798 0.0
-0.31313131313131304 -0.9797979797979798 0.0
-0.2929292929292928 -0.9797979797979798 0.0
-0.2727272727272727 -0.9797979797979798 0.0
-0.2525252525252525 -0.9797979797979798 0.0
-0.23232323232323226 -0.9797979797979798 0.0
-0.21212121212121204 -0.9797979797979798 0.0
-0.19191919191919182 -0.9797979797979798 0.0
-0.1717171717171716 -0.9797979797979798 0.0
-0.1515151515151515 -0.9797979797979798 0.0
-0.13131313131313127 -0.9797979797979798 0.0
-0.11111111111111105 -0.9797979797979798 0.0
-0.09090909090909083 -0.9797979797979798 0.0
-0.07070707070707061 -0.9797979797979798 0.0
-0.050505050505050386 -0.9797979797979798 0.0
-0.030303030303030276 -0.9797979797979798 0.0
-0.010101010101010055 -0.9797979797979798 0.0
0.010101010101010166 -0.9797979797979798 0.0
0.030303030303030498 -0.9797979797979798 0.0
0.05050505050505061 -0.9797979797979798 0.0
0.07070707070707072 -0.9797979797979798 0.0
0.09090909090909105 -0.9797979797979798 0.0
0.11111111111111116 -0.9797979797979798 0.0
0.1313131313131315 -0.9797979797979798 0.0
0.1515151515151516 -0.9797979797979798 0.0
0.1717171717171717 -0.9797979797979798 0.0
0.19191919191919204 -0.9797979797979798 0.0
0.21212121212121215 -0.9797979797979798 0.0
0.2323232323232325 -0.9797979797979798 0.0
0.2525252525252526 -0.9797979797979798 0.0
0.27272727272727293 -0.9797979797979798 0.0
0.29292929292929304 -0.9797979797979798 0.0
0.31313131313131315 -0.9797979797979798 0.0
0.3333333333333335 -0.9797979797979798 0.0
0.3535353535353536 -0.9797979797979798 0.0
0.3737373737373739 -0.9797979797979798 0.0
0.39393939393939403 -0.9797979797979798 0.0
0.41414141414141437 -0.9797979797979798 0.0
0.4343434343434345 -0.9797979797979798 0.0
0.4545454545454546 -0.9797979797979798 0.0
0.4747474747474749 -0.9797979797979798 0.0
0.49494949494949503 -0.9797979797979798 0.0
0.5151515151515154 -0.9797979797979798 0.0
0.5353535353535355 -0.9797979797979798 0.0
0.5555555555555556 -0.9797979797979798 0.0
0.5757575757575759 -0.9797979797979798 0.0
0.595959595959596 -0.9797979797979798 0.0
0.6161616161616164 -0.9797979797979798 0.0
0.6363636363636365 -0.9797979797979798 0.0
0.6565656565656568 -0.9797979797979798 0.0
0.6767676767676769 -0.9797979797979798 0.0
0.696969696969697 -0.9797979797979798 0.0
0.7171717171717173 -0.9797979797979798 0.0
0.7373737373737375 -0.9797979797979798 0.0
0.7575757575757578 -0.9797979797979798 0.0
0.7777777777777779 -0.9797979797979798 0.0
0.7979797979797982 -0.9797979797979798 0.0
0.8181818181818183 -0.9797979797979798 0.0
0.8383838383838385 -0.9797979797979798 0.0
0.8585858585858588 -0.9797979797979798 0.0
0.8787878787878789 -0.9797979797979798 0.0
0.8989898989898992 -0.9797979797979798 0.0
0.9191919191919193 -0.9797979797979798 0.0
0.9393939393939394 -0.9797979797979798 0.0
0.9595959595959598 -0.9797979797979798 0.0
0.9797979797979799 -0.9797979797979798 0.0
1.0 -0.9797979797979798 0.0
-1.0 -0.9595959595959596 0.0
-0.9797979797979798 -0.9595959595959596 0.0
-0.9595959595959596 -0.9595959595959596 0.0
-0.9393939393939394 -0.9595959595959596 0.0
-0.9191919191919192 -0.9595959595959596 0.0
-0.898989898989899 -0.9595959595959596 0.0
-0.8787878787878788 -0.9595959595959596 0.0
-0.8585858585858586 -0.9595959595959596 0.0
-0.8383838383838383 -0.9595959595959596 0.0
-0.8181818181818181 -0.9595959595959596 0.0
-0.797979797979798 -0.9595959595959596 0.0
-0.7777777777777778 -0.9595959595959596 0.0
-0.7575757575757576 -0.9595959595959596 0.0
-0.7373737373737373 -0.9595959595959596 0.0
-0.7171717171717171 -0.9595959595959596 0.0
-0.696969696969697 -0.9595959595959596 0.0
-0.6767676767676767 -0.9595959595959596 0.0
-0.6565656565656566 -0.9595959595959596 0.0
-0.6363636363636364 -0.9595959595959596 0.0
-0.6161616161616161 -0.9595959595959596 0.0
-0.5959595959595959 -0.9595959595959596 0.0
-0.5757575757575757 -0.9595959595959596 0.0
-0.5555555555555556 -0.9595959595959596 0.0
-0.5353535353535352 -0.9595959595959596 0.0
-0.5151515151515151 -0.9595959595959596 0.0
-0.4949494949494949 -0.9595959595959596 0.0
-0.4747474747474747 -0.9595959595959596 0.0
-0.4545454545454545 -0.9595959595959596 0.0
-0.43434343434343425 -0.9595959595959596 0.0
-0.41414141414141414 -0.9595959595959596 0.0
-0.3939393939393939 -0.9595959595959596 0.0
-0.3737373737373737 -0.9595959595959596 0.0
-0.3535353535353535 -0.9595959595959596 0.0
-0.33333333333333326 -0.9595959595959596 0.0
-0.31313131313131304 -0.9595959595959596 0.0
-0.2929292929292928 -0.9595959595959596 0.0
-0.2727272727272727 -0.9595959595959596 0.0
-0.2525252525252525 -0.9595959595959596 0.0
-0.23232323232323226 -0.9595959595959596 0.0
-0.21212121212121204 -0.9595959595959596 0.0
-0.19191919191919182 -0.9595959595959596 0.0
-0.1717171717171716 -0.9595959595959596 0.0
-0.1515151515151515 -0.9595959595959596 0.0
-0.13131313131313127 -0.9595959595959596 0.0
-0.11111111111111105 -0.9595959595959596 0.0
-0.09090909090909083 -0.9595959595959596 0.0
-0.07070707070707061 -0.9595959595959596 0.0
-0.050505050505050386 -0.9595959595959596 0.0
-0.030303030303030276 -0.9595959595959596 0.0
-0.010101010101010055 -0.9595959595959596 0.0
0.010101010101010166 -0.9595959595959596 0.0
0.030303030303030498 -0.9595959595959596 0.0
0.05050505050505061 -0.9595959595959596 0.0
0.07070707070707072 -0.9595959595959596 0.0
0.09090909090909105 -0.9595959595959596 0.0
0.11111111111111116 -0.9595959595959596 0.0
0.1313131313131315 -0.9595959595959596 0.0
0.1515151515151516 -0.9595959595959596 0.0
0.1717171717171717 -0.9595959595959596 0.0
0.19191919191919204 -0.9595959595959596 0.0
0.21212121212121215 -0.9595959595959596 0.0
[...]
POINT_DATA 10000
SCALARS u float 1
LOOKUP_TABLE default
9.003281593322754e-05
8.824467658996582e-05
8.64267349243164e-05
8.45491886138916e-05
8.26418399810791e-05
8.07344913482666e-05
7.873773574829102e-05
7.678568363189697e-05
7.468461990356445e-05
7.25090503692627e-05
7.02887773513794e-05
6.797909736633301e-05
6.556510925292969e-05
6.318092346191406e-05
6.070733070373535e-05
5.81890344619751e-05
5.5670738220214844e-05
5.315244197845459e-05
5.061924457550049e-05
4.817545413970947e-05
4.5746564865112305e-05
4.3392181396484375e-05
4.121661186218262e-05
3.9204955101013184e-05
3.743171691894531e-05
3.597140312194824e-05
3.479421138763428e-05
3.406405448913574e-05
3.361701965332031e-05
3.375113010406494e-05
3.412365913391113e-05
3.497302532196045e-05
3.612041473388672e-05
3.765523433685303e-05
3.927946090698242e-05
4.105269908905029e-05
4.287064075469971e-05
4.4658780097961426e-05
4.634261131286621e-05
4.801154136657715e-05
4.971027374267578e-05
5.1468610763549805e-05
5.3375959396362305e-05
5.552172660827637e-05
5.8025121688842773e-05
6.102025508880615e-05
6.45369291305542e-05
6.867945194244385e-05
7.332861423492432e-05
7.85142183303833e-05
8.42064619064331e-05
9.033083915710449e-05
9.657442569732666e-05
0.00010292232036590576
0.00010912120342254639
0.0001147538423538208
0.00011962652206420898
0.00012336671352386475
0.00012567639350891113
0.0001262873411178589
0.00012513995170593262
0.00012205541133880615
0.00011718273162841797
0.00011061131954193115
0.00010260939598083496
9.334087371826172e-05
8.314847946166992e-05
7.225573062896729e-05
6.085634231567383e-05
4.941225051879883e-05
3.8176774978637695e-05
2.7388334274291992e-05
1.71661376953125e-05
7.703900337219238e-06
-1.1026859283447266e-06
-9.372830390930176e-06
-1.7270445823669434e-05
-2.4899840354919434e-05
-3.230571746826172e-05
-3.93986701965332e-05
-4.602968692779541e-05
-5.196034908294678e-05
-5.696713924407959e-05
-6.102025508880615e-05
-6.397068500518799e-05
-6.608664989471436e-05
-6.763637065887451e-05
-6.903707981109619e-05
-7.070600986480713e-05
-7.325410842895508e-05
-7.702410221099854e-05
-8.237361907958984e-05
-8.951127529144287e-05
-9.828805923461914e-05
-0.00010877847671508789
-0.00012059509754180908
-0.00013349950313568115
-0.00014707446098327637
-0.0001608431339263916
-0.00017452239990234375
9.402632713317871e-05
9.208917617797852e-05
9.012222290039062e-05
8.809566497802734e-05
8.600950241088867e-05
8.384883403778076e-05
8.159875869750977e-05
7.918477058410645e-05
7.674098014831543e-05
7.422268390655518e-05
7.160007953643799e-05
6.888806819915771e-05
6.611645221710205e-05
6.330013275146484e-05
6.039440631866455e-05
5.751848220825195e-05
5.46872615814209e-05
5.182623863220215e-05
4.908442497253418e-05
4.6372413635253906e-05
4.3839216232299805e-05
4.138052463531494e-05
3.916025161743164e-05
3.713369369506836e-05
3.547966480255127e-05
3.3989548683166504e-05
3.2961368560791016e-05
3.224611282348633e-05
3.197789192199707e-05
3.209710121154785e-05
3.255903720855713e-05
3.331899642944336e-05
3.4436583518981934e-05
3.571808338165283e-05
3.711879253387451e-05
3.857910633087158e-05
4.003942012786865e-05
4.146993160247803e-05
4.29004430770874e-05
4.427134990692139e-05
4.5686960220336914e-05
4.729628562927246e-05
4.903972148895264e-05
5.1140785217285156e-05
5.367398262023926e-05
5.672872066497803e-05
6.029009819030762e-05
6.443262100219727e-05
6.920099258422852e-05
7.44163990020752e-05
8.00788402557373e-05
8.605420589447021e-05
9.228289127349854e-05
9.851157665252686e-05
0.00010466575622558594
0.00011055171489715576
0.0001157522201538086
0.00012008845806121826
0.00012321770191192627
0.00012472271919250488
0.00012458860874176025
0.00012265145778656006
0.00011892616748809814
0.00011351704597473145
0.00010642409324645996
9.815394878387451e-05
8.851289749145508e-05
7.800757884979248e-05
6.674230098724365e-05
5.510449409484863e-05
4.346668720245361e-05
3.1948089599609375e-05
2.104043960571289e-05
1.0788440704345703e-05
1.2814998626708984e-06
-7.465481758117676e-06
-1.5690922737121582e-05
-2.3409724235534668e-05
-3.075599670410156e-05
-3.7670135498046875e-05
-4.4211745262145996e-05
-5.009770393371582e-05
-5.525350570678711e-05
-5.951523780822754e-05
-6.285309791564941e-05
-6.549060344696045e-05
-6.745755672454834e-05
-6.927549839019775e-05
-7.12275505065918e-05
-7.380545139312744e-05
-7.738173007965088e-05
-8.2358717918396e-05
-8.882582187652588e-05
-9.694695472717285e-05
-0.00010651350021362305
-0.00011751055717468262
-0.00012952089309692383
-0.00014230608940124512
-0.00015547871589660645
-0.00016859173774719238
9.717047214508057e-05
9.50843095779419e-05
9.287893772125244e-05
9.065866470336914e-05
8.831918239593506e-05
8.578598499298096e-05
8.32676887512207e-05
8.052587509155273e-05
7.775425910949707e-05
7.480382919311523e-05
7.173418998718262e-05
6.870925426483154e-05
6.559491157531738e-05
6.237626075744629e-05
5.918741226196289e-05
5.601346492767334e-05
5.285441875457764e-05
4.982948303222656e-05
4.6819448471069336e-05
4.398822784423828e-05
4.132091999053955e-05
3.88026237487793e-05
3.6597251892089844e-05
3.46451997756958e-05
3.300607204437256e-05
3.172457218170166e-05
3.072619438171387e-05
3.0115246772766113e-05
2.9906630516052246e-05
3.0100345611572266e-05
3.0621886253356934e-05
3.1381845474243164e-05
3.241002559661865e-05
3.358721733093262e-05
3.479421138763428e-05
3.610551357269287e-05
3.7357211112976074e-05
3.860890865325928e-05
3.981590270996094e-05
4.106760025024414e-05
4.2438507080078125e-05
4.3973326683044434e-05
4.583597183227539e-05
4.807114601135254e-05
5.079805850982666e-05
5.4135918617248535e-05
5.796551704406738e-05
6.233155727386475e-05
6.717443466186523e-05
7.24494457244873e-05
7.805228233337402e-05
8.387863636016846e-05
8.983910083770752e-05
9.591877460479736e-05
0.00010186433792114258
0.00010767579078674316
0.00011301040649414062
0.0001175999641418457
0.00012119114398956299
0.0001235753297805786
0.00012436509132385254
0.00012344121932983398
0.00012083351612091064
0.00011651217937469482
0.0001105964183807373
0.00010319054126739502
9.435415267944336e-05
8.445978164672852e-05
7.346272468566895e-05
6.186962127685547e-05
4.978477954864502e-05
3.7729740142822266e-05
2.6047229766845703e-05
1.4975666999816895e-05
4.6193599700927734e-06
-4.857778549194336e-06
-1.360476016998291e-05
-2.168118953704834e-05
-2.9161572456359863e-05
-3.6135315895080566e-05
-4.260241985321045e-05
-4.8488378524780273e-05
-5.37186861038208e-05
-5.812942981719971e-05
-6.172060966491699e-05
-6.467103958129883e-05
-6.711483001708984e-05
-6.927549839019775e-05
-7.148087024688721e-05
-7.416307926177979e-05
-7.775425910949707e-05
-8.241832256317139e-05
-8.845329284667969e-05
-9.594857692718506e-05
-0.00010491907596588135
-0.0001150965690612793
-0.00012636184692382812
-0.00013843178749084473
-0.00015094876289367676
-0.00016354024410247803
9.94652509689331e-05
9.712576866149902e-05
9.463727474212646e-05
9.208917617797852e-05
8.937716484069824e-05
8.660554885864258e-05
8.362531661987305e-05
8.057057857513428e-05
7.735192775726318e-05
7.40736722946167e-05
7.075071334838867e-05
6.724894046783447e-05
6.380677223205566e-05
6.027519702911377e-05
5.6803226470947266e-05
5.336105823516846e-05
4.999339580535889e-05
4.677474498748779e-05
4.369020462036133e-05
4.079937934875488e-05
3.801286220550537e-05
3.559887409210205e-05
3.345310688018799e-05
3.153085708618164e-05
3.0055642127990723e-05
2.8833746910095215e-05
2.8058886528015137e-05
2.759695053100586e-05
2.753734588623047e-05
2.7805566787719727e-05
2.8371810913085938e-05
2.9206275939941406e-05
3.02046537399292e-05
3.133714199066162e-05
3.249943256378174e-05
3.369152545928955e-05
3.485381603240967e-05
3.604590892791748e-05
3.726780414581299e-05
3.8489699363708496e-05
3.9905309677124023e-05
4.157423973083496e-05
4.366040229797363e-05
4.622340202331543e-05
4.9233436584472656e-05
5.294382572174072e-05
5.7116150856018066e-05
6.182491779327393e-05
6.699562072753906e-05
7.238984107971191e-05
7.794797420501709e-05
8.367002010345459e-05
8.934736251831055e-05
9.50247049331665e-05
0.00010065734386444092
0.00010612607002258301
0.0001112818717956543
0.00011594593524932861
0.00011992454528808594
0.00012274086475372314
0.0001242905855178833
0.00012430548667907715
0.000122755765914917
0.00011961162090301514
0.00011481344699859619
0.00010842084884643555
0.00010058283805847168
9.137392044067383e-05
8.092820644378662e-05
6.946921348571777e-05
5.726516246795654e-05
4.476308822631836e-05
3.235042095184326e-05
2.0384788513183594e-05
9.059906005859375e-06
-1.3262033462524414e-06
-1.0818243026733398e-05
-1.952052116394043e-05
-2.7373433113098145e-05
-3.454089164733887e-05
-4.1097402572631836e-05
-4.699826240539551e-05
-5.227327346801758e-05
-5.681812763214111e-05
-6.066262722015381e-05
-6.39110803604126e-05
-6.662309169769287e-05
-6.909668445587158e-05
-7.160007953643799e-05
-7.449090480804443e-05
-7.806718349456787e-05
-8.253753185272217e-05
-8.827447891235352e-05
-9.53972339630127e-05
-0.00010371208190917969
-0.00011330842971801758
-0.0001239776611328125
-0.0001353621482849121
-0.00014729797840118408
-0.00015942752361297607
0.00010086596012115479
9.809434413909912e-05
9.529292583465576e-05
9.235739707946777e-05
8.928775787353516e-05
8.606910705566406e-05
8.276104927062988e-05
7.921457290649414e-05
7.56680965423584e-05
7.203221321105957e-05
6.827712059020996e-05
6.446242332458496e-05
6.0677528381347656e-05
5.692243576049805e-05
5.322694778442383e-05
4.965066909790039e-05
4.614889621734619e-05
4.2825937271118164e-05
3.968179225921631e-05
3.6776065826416016e-05
3.413856029510498e-05
3.17990779876709e-05
2.969801425933838e-05
2.8014183044433594e-05
2.6613473892211914e-05
2.562999725341797e-05
2.504885196685791e-05
2.47955322265625e-05
2.4899840354919434e-05
2.5317072868347168e-05
2.6032328605651855e-05
2.6926398277282715e-05
2.8014183044433594e-05
2.9131770133972168e-05
3.0338764190673828e-05
3.14861536026001e-05
3.2648444175720215e-05
3.382563591003418e-05
3.504753112792969e-05
3.6403536796569824e-05
3.795325756072998e-05
3.986060619354248e-05
4.22745943069458e-05
4.519522190093994e-05
4.868209362030029e-05
5.2809715270996094e-05
5.745887756347656e-05
6.261467933654785e-05
6.811320781707764e-05
7.374584674835205e-05
7.937848567962646e-05
8.495151996612549e-05
9.037554264068604e-05
9.559094905853271e-05
0.00010073184967041016
0.00010572373867034912
0.00011053681373596191
0.00011500716209411621
0.00011903047561645508
0.00012221932411193848
0.00012439489364624023
0.00012524425983428955
0.00012467801570892334
0.00012256205081939697
0.00011892616748809814
0.00011374056339263916
0.00010693073272705078
9.864568710327148e-05
8.881092071533203e-05
7.766485214233398e-05
6.556510925292969e-05
5.27501106262207e-05
3.975629806518555e-05
2.695620059967041e-05
1.4737248420715332e-05
3.382563591003418e-06
-7.107853889465332e-06
-1.65402889251709e-05
-2.5063753128051758e-05
-3.266334533691406e-05
-3.9458274841308594e-05
-4.559755325317383e-05
-5.093216896057129e-05
-5.558133125305176e-05
-5.9664249420166016e-05
-6.306171417236328e-05
-6.601214408874512e-05
-6.876885890960693e-05
-7.155537605285645e-05
-7.455050945281982e-05
-7.81714916229248e-05
-8.26716423034668e-05
-8.818507194519043e-05
-9.499490261077881e-05
-0.00010292232036590576
-0.00011205673217773438
-0.00012214481830596924
-0.00013302266597747803
-0.00014442205429077148
-0.00015604496002197266
0.00010120868682861328
9.801983833312988e-05
9.475648403167725e-05
9.137392044067383e-05
8.784234523773193e-05
8.413195610046387e-05
8.03917646408081e-05
7.654726505279541e-05
7.252395153045654e-05
6.850063800811768e-05
6.444752216339111e-05
6.034970283508301e-05
5.634129047393799e-05
5.233287811279297e-05
4.856288433074951e-05
4.48375940322876e-05
4.127621650695801e-05
3.801286220550537e-05
3.4928321838378906e-05
3.212690353393555e-05
2.9549002647399902e-05
2.734363079071045e-05
2.555549144744873e-05
2.4080276489257812e-05
2.2962689399719238e-05
2.218782901763916e-05
2.1889805793762207e-05
2.1889805793762207e-05
2.22623348236084e-05
2.288818359375e-05
2.3737549781799316e-05
2.4810433387756348e-05
2.5972723960876465e-05
2.7179718017578125e-05
2.8401613235473633e-05
2.962350845336914e-05
3.084540367126465e-05
3.2007694244384766e-05
3.330409526824951e-05
3.4749507904052734e-05
3.644824028015137e-05
3.859400749206543e-05
4.1231513023376465e-05
4.4539570808410645e-05
4.845857620239258e-05
5.3063035011291504e-05
5.829334259033203e-05
6.389617919921875e-05
6.978213787078857e-05
7.56978988647461e-05
8.153915405273438e-05
8.702278137207031e-05
9.222328662872314e-05
9.703636169433594e-05
0.00010164082050323486
0.00010605156421661377
0.00011035799980163574
0.00011460483074188232
0.00011844933032989502
0.00012184679508209229
0.00012439489364624023
0.00012600421905517578
0.0001262873411178589
0.00012527406215667725
0.00012277066707611084
0.00011877715587615967
0.0001131594181060791
0.00010585784912109375
9.6932053565979e-05
8.638203144073486e-05
7.446110248565674e-05
6.16312026977539e-05
4.8220157623291016e-05
3.4749507904052734e-05
2.1636486053466797e-05
9.2238187789917e-06
-2.2202730178833008e-06
-1.2621283531188965e-05
-2.1964311599731445e-05
-3.0249357223510742e-05
-3.7550926208496094e-05
-4.3973326683044434e-05
-4.960596561431885e-05
-5.449354648590088e-05
-5.863606929779053e-05
-6.222724914550781e-05
-6.54458999633789e-05
-6.839632987976074e-05
-7.131695747375488e-05
-7.455050945281982e-05
-7.826089859008789e-05
-8.274614810943604e-05
-8.819997310638428e-05
-9.47117805480957e-05
-0.0001023411750793457
-0.00011107325553894043
-0.00012077391147613525
-0.00013124942779541016
-0.00014215707778930664
-0.00015340745449066162
0.0001004338264465332
9.676814079284668e-05
9.298324584960938e-05
8.90493392944336e-05
8.501112461090088e-05
8.088350296020508e-05
7.66366720199585e-05
7.234513759613037e-05
6.797909736633301e-05
6.364285945892334e-05
5.9291720390319824e-05
5.501508712768555e-05
5.0827860832214355e-05
4.6759843826293945e-05
4.287064075469971e-05
3.9190053939819336e-05
3.568828105926514e-05
3.254413604736328e-05
2.9578804969787598e-05
2.6971101760864258e-05
2.467632293701172e-05
2.276897430419922e-05
2.1204352378845215e-05
2.0012259483337402e-05
1.919269561767578e-05
1.8805265426635742e-05
1.8790364265441895e-05
1.9073486328125e-05
1.9729137420654297e-05
2.0623207092285156e-05
2.1725893020629883e-05
2.294778823852539e-05
2.4259090423583984e-05
2.5600194931030273e-05
2.683699131011963e-05
2.8133392333984375e-05
2.9280781745910645e-05
3.0517578125e-05
3.17990779876709e-05
3.3289194107055664e-05
3.510713577270508e-05
3.7357211112976074e-05
4.0277838706970215e-05
4.379451274871826e-05
4.813075065612793e-05
5.3122639656066895e-05
5.88148832321167e-05
6.489455699920654e-05
7.118284702301025e-05
7.745623588562012e-05
8.347630500793457e-05
8.90493392944336e-05
9.40561294555664e-05
9.860098361968994e-05
0.00010274350643157959
0.00010663270950317383
0.00011038780212402344
0.00011418759822845459
0.00011782348155975342
0.00012126564979553223
0.00012415647506713867
0.00012627243995666504
0.0001274794340133667
0.0001274794340133667
0.00012607872486114502
0.0001233518123626709
0.00011897087097167969
0.00011286139488220215
0.00010488927364349365
9.517371654510498e-05
8.372962474822998e-05
7.104873657226562e-05
5.7503581047058105e-05
4.354119300842285e-05
2.968311309814453e-05
1.633167266845703e-05
3.874301910400391e-06
-7.644295692443848e-06
-1.792609691619873e-05
-2.7045607566833496e-05
-3.5002827644348145e-05
-4.1961669921875e-05
-4.801154136657715e-05
-5.315244197845459e-05
-5.7578086853027344e-05
-6.146728992462158e-05
-6.483495235443115e-05
-6.794929504394531e-05
-7.109344005584717e-05
-7.443130016326904e-05
-7.82310962677002e-05
-8.273124694824219e-05
-8.809566497802734e-05
-9.451806545257568e-05
-0.00010192394256591797
-0.00011041760444641113
-0.00011977553367614746
-0.00012984871864318848
-0.0001404881477355957
-0.00015141069889068604
9.851157665252686e-05
9.419023990631104e-05
8.982419967651367e-05
8.536875247955322e-05
8.082389831542969e-05
7.618963718414307e-05
7.152557373046875e-05
6.683170795440674e-05
6.221234798431396e-05
5.7578086853027344e-05
5.301833152770996e-05
4.863739013671875e-05
4.4345855712890625e-05
4.035234451293945e-05
3.650784492492676e-05
3.288686275482178e-05
2.9653310775756836e-05
2.6658177375793457e-05
2.403557300567627e-05
2.1636486053466797e-05
1.9684433937072754e-05
1.8149614334106445e-05
1.6883015632629395e-05
1.6167759895324707e-05
1.5750527381896973e-05
1.570582389831543e-05
1.6033649444580078e-05
1.6734004020690918e-05
1.767277717590332e-05
1.8849968910217285e-05
2.0191073417663574e-05
2.156198024749756e-05
2.3066997528076172e-05
2.446770668029785e-05
2.5719404220581055e-05
2.6971101760864258e-05
2.8192996978759766e-05
2.9265880584716797e-05
3.056228160858154e-05
3.197789192199707e-05
3.375113010406494e-05
3.598630428314209e-05
3.8951635360717773e-05
4.260241985321045e-05
4.710257053375244e-05
5.2362680435180664e-05
5.829334259033203e-05
6.470084190368652e-05
7.143616676330566e-05
7.802248001098633e-05
8.435547351837158e-05
9.009242057800293e-05
9.511411190032959e-05
9.942054748535156e-05
0.00010314583778381348
0.00010661780834197998
0.00010989606380462646
0.0001131892204284668
0.0001166313886642456
0.00012007355690002441
0.00012324750423431396
0.0001259148120880127
0.00012786686420440674
0.00012880563735961914
0.00012861192226409912
0.00012715160846710205
0.00012411177158355713
0.00011929869651794434
0.00011245906352996826
0.00010360777378082275
9.295344352722168e-05
8.061528205871582e-05
6.70701265335083e-05
5.294382572174072e-05
3.859400749206543e-05
2.4557113647460938e-05
1.1101365089416504e-05
-1.4156103134155273e-06
-1.271069049835205e-05
-2.2873282432556152e-05
-3.172457218170166e-05
-3.9383769035339355e-05
-4.5925378799438477e-05
-5.157291889190674e-05
-5.6356191635131836e-05
-6.048381328582764e-05
-6.413459777832031e-05
-6.747245788574219e-05
-7.072091102600098e-05
-7.420778274536133e-05
-7.814168930053711e-05
-8.265674114227295e-05
-8.800625801086426e-05
-9.432435035705566e-05
-0.00010164082050323486
-0.00010988116264343262
-0.00011901557445526123
-0.00012888014316558838
-0.0001392066478729248
-0.00014989078044891357
9.524822235107422e-05
9.031593799591064e-05
8.532404899597168e-05
8.033215999603271e-05
7.526576519012451e-05
7.021427154541016e-05
6.51627779006958e-05
6.0185790061950684e-05
5.5283308029174805e-05
5.0514936447143555e-05
4.5925378799438477e-05
4.149973392486572e-05
3.731250762939453e-05
3.3408403396606445e-05
2.975761890411377e-05
2.6419758796691895e-05
2.339482307434082e-05
2.0757317543029785e-05
1.84476375579834e-05
1.6510486602783203e-05
1.500546932220459e-05
1.385807991027832e-05
1.3068318367004395e-05
1.2755393981933594e-05
1.2814998626708984e-05
1.315772533416748e-05
1.3962388038635254e-05
1.4960765838623047e-05
1.627206802368164e-05
1.773238182067871e-05
1.932680606842041e-05
2.0951032638549805e-05
2.2456049919128418e-05
2.3916363716125488e-05
2.5257468223571777e-05
2.6345252990722656e-05
2.7447938919067383e-05
2.841651439666748e-05
2.9489398002624512e-05
3.072619438171387e-05
3.224611282348633e-05
3.4332275390625e-05
3.707408905029297e-05
4.060566425323486e-05
4.506111145019531e-05
5.030632019042969e-05
5.6296586990356445e-05
6.29723072052002e-05
6.982684135437012e-05
7.671117782592773e-05
8.328258991241455e-05
8.915364742279053e-05
9.429454803466797e-05
9.85562801361084e-05
0.00010222196578979492
0.00010529160499572754
0.00010821223258972168
0.00011126697063446045
0.00011445581912994385
0.00011786818504333496
0.00012129545211791992
0.00012446939945220947
0.00012712180614471436
0.0001291036605834961
0.00013013184070587158
0.00012989342212677002
0.00012822449207305908
0.00012478232383728027
0.0001192241907119751
0.00011155009269714355
0.00010165572166442871
8.991360664367676e-05
7.669627666473389e-05
6.256997585296631e-05
4.8041343688964844e-05
3.3468008041381836e-05
1.9297003746032715e-05
5.9604644775390625e-06
-6.42240047454834e-06
-1.749396324157715e-05
-2.7373433113098145e-05
-3.5896897315979004e-05
-4.32431697845459e-05
-4.9501657485961914e-05
-5.474686622619629e-05