# vtk DataFile Version 3.0
2D PINN Solution
ASCII
DATASET STRUCTURED_GRID
DIMENSIONS 100 100 1
POINTS 10000 float
-1.0 -1.0 0.0
-0.9797979797979798 -1.0 0.0
-0.9595959595959596 -1.0 0.0
-0.9393939393939394 -1.0 0.0
-0.9191919191919192 -1.0 0.0
-0.898989898989899 -1.0 0.0
-0.8787878787878788 -1.0 0.0
-0.8585858585858586 -1.0 0.0
-0.8383838383838383 -1.0 0.0
-0.8181818181818181 -1.0 0.0
-0.797979797979798 -1.0 0.0
-0.7777777777777778 -1.0 0.0
-0.7575757575757576 -1.0 0.0
-0.7373737373737373 -1.0 0.0
-0.7171717171717171 -1.0 0.0
-0.696969696969697 -1.0 0.0
-0.6767676767676767 -1.0 0.0
-0.6565656565656566 -1.0 0.0
-0.6363636363636364 -1.0 0.0
-0.6161616161616161 -1.0 0.0
-0.5959595959595959 -1.0 0.0
-0.5757575757575757 -1.0 0.0
-0.5555555555555556 -1.0 0.0
-0.5353535353535352 -1.0 0.0
-0.5151515151515151 -1.0 0.0
-0.4949494949494949 -1.0 0.0
-0.4747474747474747 -1.0 0.0
-0.4545454545454545 -1.0 0.0
-0.43434343434343425 -1.0 0.0
-0.41414141414141414 -1.0 0.0
-0.3939393939393939 -1.0 0.0
-0.3737373737373737 -1.0 0.0
-0.3535353535353535 -1.0 0.0
-0.33333333333333326 -1.0 0.0
-0.31313131313131304 -1.0 0.0
-0.2929292929292928 -1.0 0.0
-0.2727272727272727 -1.0 0.0
-0.2525252525252525 -1.0 0.0
-0.23232323232323226 -1.0 0.0
-0.21212121212121204 -1.0 0.0
-0.19191919191919182 -1.0 0.0
-0.1717171717171716 -1.0 0.0
-0.1515151515151515 -1.0 0.0
-0.13131313131313127 -1.0 0.0
-0.11111111111111105 -1.0 0.0
-0.09090909090909083 -1.0 0.0
-0.07070707070707061 -1.0 0.0
-0.050505050505050386 -1.0 0.0
-0.030303030303030276 -1.0 0.0
-0.010101010101010055 -1.0 0.0
0.010101010101010166 -1.0 0.0
0.030303030303030498 -1.0 0.0
0.05050505050505061 -1.0 0.0
0.07070707070707072 -1.0 0.0
0.09090909090909105 -1.0 0.0
0.11111111111111116 -1.0 0.0
0.1313131313131315 -1.0 0.0
0.1515151515151516 -1.0 0.0
0.1717171717171717 -1.0 0.0
0.19191919191919204 -1.0 0.0
0.21212121212121215 -1.0 0.0
0.2323232323232325 -1.0 0.0
0.2525252525252526 -1.0 0.0
0.27272727272727293 -1.0 0.0
0.29292929292929304 -1.0 0.0
0.31313131313131315 -1.0 0.0
0.3333333333333335 -1.0 0.0
0.3535353535353536 -1.0 0.0
0.3737373737373739 -1.0 0.0
0.39393939393939403 -1.0 0.0
0.41414141414141437 -1.0 0.0
0.4343434343434345 -1.0 0.0
0.4545454545454546 -1.0 0.0
0.4747474747474749 -1.0 0.0
0.49494949494949503 -1.0 0.0
0.5151515151515154 -1.0 0.0
0.5353535353535355 -1.0 0.0
0.5555555555555556 -1.0 0.0
0.5757575757575759 -1.0 0.0
0.595959595959596 -1.0 0.0
0.6161616161616164 -1.0 0.0
0.6363636363636365 -1.0 0.0
0.6565656565656568 -1.0 0.0
0.6767676767676769 -1.0 0.0
0.696969696969697 -1.0 0.0
0.7171717171717173 -1.0 0.0
0.7373737373737375 -1.0 0.0
0.7575757575757578 -1.0 0.0
0.7777777777777779 -1.0 0.0
0.7979797979797982 -1.0 0.0
0.8181818181818183 -1.0 0.0
0.8383838383838385 -1.0 0.0
0.8585858585858588 -1.0 0.0
0.8787878787878789 -1.0 0.0
0.8989898989898992 -1.0 0.0
0.9191919191919193 -1.0 0.0
0.9393939393939394 -1.0 0.0
0.9595959595959598 -1.0 0.0
0.9797979797979799 -1.0 0.0
1.0 -1.0 0.0
-1.0 -0.9797979797979798 0.0
-0.9797979797979798 -0.9797979797979798 0.0
-0.9595959595959596 -0.9797979797979798 0.0
-0.9393939393939394 -0.9797979797979798 0.0
-0.9191919191919192 -0.9797979797979798 0.0
-0.898989898989899 -0.9797979797979798 0.0
-0.8787878787878788 -0.9797979797979798 0.0
-0.8585858585858586 -0.9797979797979798 0.0
-0.8383838383838383 -0.9797979797979798 0.0
-0.8181818181818181 -0.9797979797979798 0.0
-0.797979797979798 -0.9797979797979798 0.0
-0.7777777777777778 -0.9797979797979798 0.0
-0.7575757575757576 -0.9797979797979798 0.0
-0.7373737373737373 -0.9797979797979798 0.0
-0.7171717171717171 -0.9797979797979798 0.0
-0.696969696969697 -0.9797979797979798 0.0
-0.6767676767676767 -0.9797979797979798 0.0
-0.6565656565656566 -0.9797979797979798 0.0
-0.6363636363636364 -0.9797979797979798 0.0
-0.6161616161616161 -0.9797979797979798 0.0
-0.5959595959595959 -0.9797979797979798 0.0
-0.5757575757575757 -0.9797979797979798 0.0
-0.5555555555555556 -0.9797979797979798 0.0
-0.5353535353535352 -0.9797979797979798 0.0
-0.5151515151515151 -0.9797979797979798 0.0
-0.4949494949494949 -0.9797979797979798 0.0
-0.4747474747474747 -0.9797979797979798 0.0
-0.4545454545454545 -0.9797979797979798 0.0
-0.43434343434343425 -0.9797979797979798 0.0
-0.41414141414141414 -0.9797979797979798 0.0
-0.3939393939393939 -0.9797979797979798 0.0
-0.3737373737373737 -0.9797979797979798 0.0
-0.3535353535353535 -0.9797979797979798 0.0
-0.33333333333333326 -0.9797979797979798 0.0
-0.31313131313131304 -0.9797979797979798 0.0
-0.2929292929292928 -0.9797979797979798 0.0
-0.2727272727272727 -0.9797979797979798 0.0
-0.2525252525252525 -0.9797979797979798 0.0
-0.23232323232323226 -0.9797979797979798 0.0
-0.21212121212121204 -0.9797979797979798 0.0
-0.19191919191919182 -0.9797979797979798 0.0
-0.1717171717171716 -0.9797979797979798 0.0
-0.1515151515151515 -0.9797979797979798 0.0
-0.13131313131313127 -0.9797979797979798 0.0
-0.11111111111111105 -0.9797979797979798 0.0
-0.09090909090909083 -0.9797979797979798 0.0
-0.07070707070707061 -0.9797979797979798 0.0
-0.050505050505050386 -0.9797979797979798 0.0
-0.030303030303030276 -0.9797979797979798 0.0
-0.010101010101010055 -0.9797979797979798 0.0
0.010101010101010166 -0.9797979797979798 0.0
0.030303030303030498 -0.9797979797979798 0.0
0.05050505050505061 -0.9797979797979798 0.0
0.07070707070707072 -0.9797979797979798 0.0
0.09090909090909105 -0.9797979797979798 0.0
0.11111111111111116 -0.9797979797979798 0.0
0.1313131313131315 -0.9797979797979798 0.0
0.1515151515151516 -0.9797979797979798 0.0
0.1717171717171717 -0.9797979797979798 0.0
0.19191919191919204 -0.9797979797979798 0.0
0.21212121212121215 -0.9797979797979798 0.0
0.2323232323232325 -0.9797979797979798 0.0
0.2525252525252526 -0.9797979797979798 0.0
0.27272727272727293 -0.9797979797979798 0.0
0.29292929292929304 -0.9797979797979798 0.0
0.31313131313131315 -0.9797979797979798 0.0
0.3333333333333335 -0.9797979797979798 0.0
0.3535353535353536 -0.9797979797979798 0.0
0.3737373737373739 -0.9797979797979798 0.0
0.39393939393939403 -0.9797979797979798 0.0
0.41414141414141437 -0.9797979797979798 0.0
0.4343434343434345 -0.9797979797979798 0.0
0.4545454545454546 -0.9797979797979798 0.0
0.4747474747474749 -0.9797979797979798 0.0
0.49494949494949503 -0.9797979797979798 0.0
0.5151515151515154 -0.9797979797979798 0.0
0.5353535353535355 -0.9797979797979798 0.0
0.5555555555555556 -0.9797979797979798 0.0
0.5757575757575759 -0.9797979797979798 0.0
0.595959595959596 -0.9797979797979798 0.0
0.6161616161616164 -0.9797979797979798 0.0
0.6363636363636365 -0.9797979797979798 0.0
0.6565656565656568 -0.9797979797979798 0.0
0.6767676767676769 -0.9797979797979798 0.0
0.696969696969697 -0.9797979797979798 0.0
0.7171717171717173 -0.9797979797979798 0.0
0.7373737373737375 -0.9797979797979798 0.0
0.7575757575757578 -0.9797979797979798 0.0
0.7777777777777779 -0.9797979797979798 0.0
0.7979797979797982 -0.9797979797979798 0.0
0.8181818181818183 -0.9797979797979798 0.0
0.8383838383838385 -0.9797979797979798 0.0
0.8585858585858588 -0.9797979797979798 0.0
0.8787878787878789 -0.9797979797979798 0.0
0.8989898989898992 -0.9797979797979798 0.0
0.9191919191919193 -0.9797979797979798 0.0
0.9393939393939394 -0.9797979797979798 0.0
0.9595959595959598 -0.9797979797979798 0.0
0.9797979797979799 -0.9797979797979798 0.0
1.0 -0.9797979797979798 0.0
-1.0 -0.9595959595959596 0.0
-0.9797979797979798 -0.9595959595959596 0.0
-0.9595959595959596 -0.9595959595959596 0.0
-0.9393939393939394 -0.9595959595959596 0.0
-0.9191919191919192 -0.9595959595959596 0.0
-0.898989898989899 -0.9595959595959596 0.0
-0.8787878787878788 -0.9595959595959596 0.0
-0.8585858585858586 -0.9595959595959596 0.0
-0.8383838383838383 -0.9595959595959596 0.0
-0.8181818181818181 -0.9595959595959596 0.0
-0.797979797979798 -0.9595959595959596 0.0
-0.7777777777777778 -0.9595959595959596 0.0
-0.7575757575757576 -0.9595959595959596 0.0
-0.7373737373737373 -0.9595959595959596 0.0
-0.7171717171717171 -0.9595959595959596 0.0
-0.696969696969697 -0.9595959595959596 0.0
-0.6767676767676767 -0.9595959595959596 0.0
-0.6565656565656566 -0.9595959595959596 0.0
-0.6363636363636364 -0.9595959595959596 0.0
-0.6161616161616161 -0.9595959595959596 0.0
-0.5959595959595959 -0.9595959595959596 0.0
-0.5757575757575757 -0.9595959595959596 0.0
-0.5555555555555556 -0.9595959595959596 0.0
-0.5353535353535352 -0.9595959595959596 0.0
-0.5151515151515151 -0.9595959595959596 0.0
-0.4949494949494949 -0.9595959595959596 0.0
-0.4747474747474747 -0.9595959595959596 0.0
-0.4545454545454545 -0.9595959595959596 0.0
-0.43434343434343425 -0.9595959595959596 0.0
-0.41414141414141414 -0.9595959595959596 0.0
-0.3939393939393939 -0.9595959595959596 0.0
-0.3737373737373737 -0.9595959595959596 0.0
-0.3535353535353535 -0.9595959595959596 0.0
-0.33333333333333326 -0.9595959595959596 0.0
-0.31313131313131304 -0.9595959595959596 0.0
-0.2929292929292928 -0.9595959595959596 0.0
-0.2727272727272727 -0.9595959595959596 0.0
-0.2525252525252525 -0.9595959595959596 0.0
-0.23232323232323226 -0.9595959595959596 0.0
-0.21212121212121204 -0.9595959595959596 0.0
-0.19191919191919182 -0.9595959595959596 0.0
-0.1717171717171716 -0.9595959595959596 0.0
-0.1515151515151515 -0.9595959595959596 0.0
-0.13131313131313127 -0.9595959595959596 0.0
-0.11111111111111105 -0.9595959595959596 0.0
-0.09090909090909083 -0.9595959595959596 0.0
-0.07070707070707061 -0.9595959595959596 0.0
-0.050505050505050386 -0.9595959595959596 0.0
-0.030303030303030276 -0.9595959595959596 0.0
-0.010101010101010055 -0.9595959595959596 0.0
0.010101010101010166 -0.9595959595959596 0.0
0.030303030303030498 -0.9595959595959596 0.0
0.05050505050505061 -0.9595959595959596 0.0
0.07070707070707072 -0.9595959595959596 0.0
0.09090909090909105 -0.9595959595959596 0.0
0.11111111111111116 -0.9595959595959596 0.0
0.1313131313131315 -0.9595959595959596 0.0
0.1515151515151516 -0.9595959595959596 0.0
0.1717171717171717 -0.9595959595959596 0.0
0.19191919191919204 -0.9595959595959596 0.0
0.21212121212121215 -0.9595959595959596 0.0
[...]
POINT_DATA 10000
SCALARS u float 1
LOOKUP_TABLE default
5.061924457550049e-05
4.789233207702637e-05
4.565715789794922e-05
4.385411739349365e-05
4.2438507080078125e-05
4.1484832763671875e-05
4.081428050994873e-05
4.0411949157714844e-05
4.0337443351745605e-05
4.035234451293945e-05
4.0590763092041016e-05
4.094839096069336e-05
4.13358211517334e-05
4.1857361793518066e-05
4.228949546813965e-05
4.291534423828125e-05
4.346668720245361e-05
4.400312900543213e-05
4.4658780097961426e-05
4.525482654571533e-05
4.598498344421387e-05
4.686415195465088e-05
4.774332046508789e-05
4.8786401748657227e-05
5.005300045013428e-05
5.151331424713135e-05
5.310773849487305e-05
5.501508712768555e-05
5.7190656661987305e-05
5.953013896942139e-05
6.222724914550781e-05
6.510317325592041e-05
6.827712059020996e-05
7.158517837524414e-05
7.508695125579834e-05
7.864832878112793e-05
8.225440979003906e-05
8.584558963775635e-05
8.940696716308594e-05
9.274482727050781e-05
9.57101583480835e-05
9.846687316894531e-05
0.00010076165199279785
0.00010251998901367188
0.0001036226749420166
0.00010409951210021973
0.00010381639003753662
0.00010269880294799805
0.00010070204734802246
9.78708267211914e-05
9.413063526153564e-05
8.943676948547363e-05
8.396804332733154e-05
7.76052474975586e-05
7.05420970916748e-05
6.271898746490479e-05
5.435943603515625e-05
4.538893699645996e-05
3.579258918762207e-05
2.574920654296875e-05
1.5139579772949219e-05
4.291534423828125e-06
-7.033348083496094e-06
-1.8522143363952637e-05
-3.0115246772766113e-05
-4.169344902038574e-05
-5.303323268890381e-05
-6.404519081115723e-05
-7.444620132446289e-05
-8.429586887359619e-05
-9.329617023468018e-05
-0.00010144710540771484
-0.00010862946510314941
-0.00011497735977172852
-0.00012029707431793213
-0.00012467801570892334
-0.00012814998626708984
-0.00013068318367004395
-0.0001325756311416626
-0.00013360381126403809
-0.00013424456119537354
-0.000134393572807312
-0.00013440847396850586
-0.00013430416584014893
-0.00013434886932373047
-0.00013469159603118896
-0.00013540685176849365
-0.0001367032527923584
-0.00013870000839233398
-0.00014144182205200195
-0.00014477968215942383
-0.00014886260032653809
-0.00015360116958618164
-0.0001589357852935791
-0.0001645982265472412
-0.00017067790031433105
-0.0001768171787261963
-0.0001830756664276123
-0.0001892298460006714
-0.00019510090351104736
5.3688883781433105e-05
5.1349401473999023e-05
4.9561262130737305e-05
4.811584949493408e-05
4.711747169494629e-05
4.646182060241699e-05
4.604458808898926e-05
4.5999884605407715e-05
4.5999884605407715e-05
4.626810550689697e-05
4.6625733375549316e-05
4.70280647277832e-05
4.749000072479248e-05
4.793703556060791e-05
4.836916923522949e-05
4.881620407104492e-05
4.9307942390441895e-05
4.9680471420288086e-05
5.0127506256103516e-05
5.05596399307251e-05
5.1081180572509766e-05
5.1647424697875977e-05
5.2347779273986816e-05
5.307793617248535e-05
5.409121513366699e-05
5.5208802223205566e-05
5.6624412536621094e-05
5.817413330078125e-05
5.9977173805236816e-05
6.212294101715088e-05
6.437301635742188e-05
6.699562072753906e-05
6.982684135437012e-05
7.277727127075195e-05
7.596611976623535e-05
7.924437522888184e-05
8.26120376586914e-05
8.594989776611328e-05
8.922815322875977e-05
9.247660636901855e-05
9.538233280181885e-05
9.804964065551758e-05
0.00010024011135101318
0.00010207295417785645
0.0001032799482345581
0.00010383129119873047
0.00010375678539276123
0.00010283291339874268
0.00010110437870025635
9.851157665252686e-05
9.50247049331665e-05
9.071826934814453e-05
8.559226989746094e-05
7.966160774230957e-05
7.303059101104736e-05
6.569921970367432e-05
5.7816505432128906e-05
4.933774471282959e-05
4.030764102935791e-05
3.075599670410156e-05
2.06679105758667e-05
1.004338264465332e-05
-9.5367431640625e-07
-1.2442469596862793e-05
-2.4124979972839355e-05
-3.5896897315979004e-05
-4.762411117553711e-05
-5.899369716644287e-05
-6.985664367675781e-05
-8.009374141693115e-05
-8.957087993621826e-05
-9.796023368835449e-05
-0.00010542571544647217
-0.00011186301708221436
-0.00011724233627319336
-0.00012168288230895996
-0.00012521445751190186
-0.0001278221607208252
-0.0001297593116760254
-0.0001310110092163086
-0.00013180077075958252
-0.0001321732997894287
-0.00013241171836853027
-0.0001325458288192749
-0.00013276934623718262
-0.00013329088687896729
-0.00013415515422821045
-0.0001354813575744629
-0.00013746321201324463
-0.00014002621173858643
-0.0001433044672012329
-0.00014725327491760254
-0.00015175342559814453
-0.00015681982040405273
-0.00016230344772338867
-0.0001681596040725708
-0.00017412006855010986
-0.0001802295446395874
-0.00018619000911712646
-0.00019197165966033936
5.653500556945801e-05
5.462765693664551e-05
5.316734313964844e-05
5.2094459533691406e-05
5.131959915161133e-05
5.08427619934082e-05
5.0693750381469727e-05
5.073845386505127e-05
5.0902366638183594e-05
5.120038986206055e-05
5.1528215408325195e-05
5.188584327697754e-05
5.221366882324219e-05
5.257129669189453e-05
5.288422107696533e-05
5.310773849487305e-05
5.328655242919922e-05
5.348026752471924e-05
5.365908145904541e-05
5.379319190979004e-05
5.4016709327697754e-05
5.4255127906799316e-05
5.455315113067627e-05
5.505979061126709e-05
5.568563938140869e-05
5.6549906730651855e-05
5.7503581047058105e-05
5.874037742614746e-05
6.0245394706726074e-05
6.19739294052124e-05
6.395578384399414e-05
6.620585918426514e-05
6.872415542602539e-05
7.140636444091797e-05
7.428228855133057e-05
7.729232311248779e-05
8.03917646408081e-05
8.36402177810669e-05
8.672475814819336e-05
8.988380432128906e-05
9.272992610931396e-05
9.541213512420654e-05
9.773671627044678e-05
9.967386722564697e-05
0.00010113418102264404
0.00010193884372711182
0.00010213255882263184
0.00010153651237487793
0.0001001507043838501
9.796023368835449e-05
9.481608867645264e-05
9.08970832824707e-05
8.612871170043945e-05
8.07046890258789e-05
7.449090480804443e-05
6.775557994842529e-05
6.039440631866455e-05
5.249679088592529e-05
4.410743713378906e-05
3.528594970703125e-05
2.586841583251953e-05
1.589953899383545e-05
5.3942203521728516e-06
-5.617737770080566e-06
-1.6987323760986328e-05
-2.8640031814575195e-05
-4.030764102935791e-05
-5.182623863220215e-05
-6.283819675445557e-05
-7.328391075134277e-05
-8.288025856018066e-05
-9.153783321380615e-05
-9.916722774505615e-05
-0.00010570883750915527
-0.0001112818717956543
-0.00011576712131500244
-0.00011949241161346436
-0.00012233853340148926
-0.0001245439052581787
-0.0001261681318283081
-0.00012737512588500977
-0.00012829899787902832
-0.00012892484664916992
-0.00012952089309692383
-0.00013017654418945312
-0.0001310110092163086
-0.0001321732997894287
-0.00013369321823120117
-0.0001357942819595337
-0.00013841688632965088
-0.00014163553714752197
-0.00014550983905792236
-0.00014984607696533203
-0.00015479326248168945
-0.00016009807586669922
-0.00016574561595916748
-0.0001716017723083496
-0.00017753243446350098
-0.00018340349197387695
-0.0001891106367111206
5.908310413360596e-05
5.754828453063965e-05
5.6356191635131836e-05
5.5462121963500977e-05
5.494058132171631e-05
5.46574592590332e-05
5.455315113067627e-05
5.4642558097839355e-05
5.480647087097168e-05
5.504488945007324e-05
5.53131103515625e-05
5.5462121963500977e-05
5.5670738220214844e-05
5.576014518737793e-05
5.576014518737793e-05
5.5670738220214844e-05
5.5536627769470215e-05
5.537271499633789e-05
5.5149197578430176e-05
5.4955482482910156e-05
5.476176738739014e-05
5.459785461425781e-05
5.455315113067627e-05
5.46872615814209e-05
5.4895877838134766e-05
5.5342912673950195e-05
5.59687614440918e-05
5.684792995452881e-05
5.8025121688842773e-05
5.938112735748291e-05
6.1005353927612305e-05
6.29127025604248e-05
6.502866744995117e-05
6.744265556335449e-05
6.99758529663086e-05
7.28219747543335e-05
7.574260234832764e-05
7.876753807067871e-05
8.183717727661133e-05
8.484721183776855e-05
8.779764175415039e-05
9.05841588973999e-05
9.3117356300354e-05
9.53376293182373e-05
9.711086750030518e-05
9.827315807342529e-05
9.892880916595459e-05
9.879469871520996e-05
9.791553020477295e-05
9.614229202270508e-05
9.357929229736328e-05
9.013712406158447e-05
8.589029312133789e-05
8.089840412139893e-05
7.528066635131836e-05
6.89774751663208e-05
6.219744682312012e-05
5.501508712768555e-05
4.73707914352417e-05
3.9264559745788574e-05
3.0621886253356934e-05
2.1502375602722168e-05
1.1816620826721191e-05
1.5497207641601562e-06
-9.164214134216309e-06
-2.034008502960205e-05
-3.1635165214538574e-05
-4.2811036109924316e-05
-5.373358726501465e-05
-6.408989429473877e-05
-7.361173629760742e-05
-8.228421211242676e-05
-8.991360664367676e-05
-9.657442569732666e-05
-0.00010222196578979492
-0.00010690093040466309
-0.00011086463928222656
-0.00011406838893890381
-0.00011676549911499023
-0.00011898577213287354
-0.0001207888126373291
-0.0001223534345626831
-0.0001236945390701294
-0.00012506544589996338
-0.00012634694576263428
-0.0001277327537536621
-0.0001293271780014038
-0.00013121962547302246
-0.00013360381126403809
-0.0001363605260848999
-0.00013968348503112793
-0.00014352798461914062
-0.000147894024848938
-0.00015267729759216309
-0.00015789270401000977
-0.00016342103481292725
-0.00016914308071136475
-0.00017498433589935303
-0.0001807957887649536
-0.00018645823001861572
6.136298179626465e-05
6.003677845001221e-05
5.905330181121826e-05
5.838274955749512e-05
5.796551704406738e-05
5.774199962615967e-05
5.768239498138428e-05
5.7697296142578125e-05
5.7756900787353516e-05
5.7891011238098145e-05
5.7816505432128906e-05
5.777180194854736e-05
5.7637691497802734e-05
5.7369470596313477e-05
5.6996941566467285e-05
5.653500556945801e-05
5.59687614440918e-05
5.537271499633789e-05
5.4717063903808594e-05
5.404651165008545e-05
5.342066287994385e-05
5.2869319915771484e-05
5.2422285079956055e-05
5.213916301727295e-05
5.1915645599365234e-05
5.201995372772217e-05
5.224347114562988e-05
5.27501106262207e-05
5.346536636352539e-05
5.449354648590088e-05
5.580484867095947e-05
5.733966827392578e-05
5.914270877838135e-05
6.122887134552002e-05
6.355345249176025e-05
6.611645221710205e-05
6.881356239318848e-05
7.173418998718262e-05
7.46697187423706e-05
7.776916027069092e-05
8.080899715423584e-05
8.377432823181152e-05
8.656084537506104e-05
8.916854858398438e-05
9.134411811828613e-05
9.308755397796631e-05
9.422004222869873e-05
9.47415828704834e-05
9.445846080780029e-05
9.34600830078125e-05
9.150803089141846e-05
8.875131607055664e-05
8.52048397064209e-05
8.080899715423584e-05
7.574260234832764e-05
7.006525993347168e-05
6.389617919921875e-05
5.733966827392578e-05
5.030632019042969e-05
4.3019652366638184e-05
3.524124622344971e-05
2.7000904083251953e-05
1.8224120140075684e-05
8.851289749145508e-06
-9.98377799987793e-07
-1.138448715209961e-05
-2.199411392211914e-05
-3.261864185333252e-05
-4.303455352783203e-05
-5.300343036651611e-05
-6.224215030670166e-05
-7.067620754241943e-05
-7.811188697814941e-05
-8.469820022583008e-05
-9.036064147949219e-05
-9.523332118988037e-05
-9.940564632415771e-05
-0.0001030266284942627
-0.00010634958744049072
-0.00010922551155090332
-0.00011186301708221436
-0.00011432170867919922
-0.00011664628982543945
-0.0001188516616821289
-0.00012101233005523682
-0.00012318789958953857
-0.00012552738189697266
-0.00012803077697753906
-0.00013077259063720703
-0.00013387203216552734
-0.0001373887062072754
-0.00014127790927886963
-0.0001456737518310547
-0.00015054643154144287
-0.00015570223331451416
-0.00016120076179504395
-0.0001668483018875122
-0.0001726597547531128
-0.0001783818006515503
-0.00018395483493804932
6.337463855743408e-05
6.224215030670166e-05
6.139278411865234e-05
6.082653999328613e-05
6.0439109802246094e-05
6.020069122314453e-05
6.00665807723999e-05
6.000697612762451e-05
5.981326103210449e-05
5.958974361419678e-05
5.9351325035095215e-05
5.888938903808594e-05
5.8323144912719727e-05
5.765259265899658e-05
5.678832530975342e-05
5.587935447692871e-05
5.480647087097168e-05
5.373358726501465e-05
5.2556395530700684e-05
5.143880844116211e-05
5.036592483520508e-05
4.933774471282959e-05
4.8488378524780273e-05
4.772841930389404e-05
4.716217517852783e-05
4.686415195465088e-05
4.67151403427124e-05
4.686415195465088e-05
4.722177982330322e-05
4.786252975463867e-05
4.8801302909851074e-05
5.002319812774658e-05
5.151331424713135e-05
5.3316354751586914e-05
5.53131103515625e-05
5.7637691497802734e-05
6.0170888900756836e-05
6.29127025604248e-05
6.595253944396973e-05
6.89476728439331e-05
7.218122482299805e-05
7.539987564086914e-05
7.8544020652771e-05
8.156895637512207e-05
8.42660665512085e-05
8.663535118103027e-05
8.857250213623047e-05
8.982419967651367e-05
9.045004844665527e-05
9.021162986755371e-05
8.922815322875977e-05
8.738040924072266e-05
8.468329906463623e-05
8.116662502288818e-05
7.69495964050293e-05
7.198750972747803e-05
6.656348705291748e-05
6.064772605895996e-05
5.429983139038086e-05
4.762411117553711e-05
4.0590763092041016e-05
3.30507755279541e-05
2.5153160095214844e-05
1.6614794731140137e-05
7.614493370056152e-06
-1.8477439880371094e-06
-1.1667609214782715e-05
-2.1532177925109863e-05
-3.123283386230469e-05
-4.056096076965332e-05
-4.9307942390441895e-05
-5.728006362915039e-05
-6.435811519622803e-05
-7.066130638122559e-05
-7.624924182891846e-05
-8.112192153930664e-05
-8.55177640914917e-05
-8.96453857421875e-05
-9.34898853302002e-05
-9.712576866149902e-05
-0.00010070204734802246
-0.0001042485237121582
-0.00010758638381958008
-0.0001109689474105835
-0.00011417269706726074
-0.00011743605136871338
-0.00012056529521942139
-0.00012382864952087402
-0.00012718141078948975
-0.00013077259063720703
-0.00013461709022521973
-0.0001388341188430786
-0.0001433342695236206
-0.00014822185039520264
-0.00015343725681304932
-0.0001589059829711914
-0.00016455352306365967
-0.0001703202724456787
-0.0001760721206665039
-0.00018170475959777832
6.51329755783081e-05
6.413459777832031e-05
6.337463855743408e-05
6.283819675445557e-05
6.240606307983398e-05
6.204843521118164e-05
6.173551082611084e-05
6.140768527984619e-05
6.099045276641846e-05
6.046891212463379e-05
5.976855754852295e-05
5.893409252166748e-05
5.793571472167969e-05
5.6684017181396484e-05
5.5402517318725586e-05
5.3882598876953125e-05
5.231797695159912e-05
5.067884922027588e-05
4.902482032775879e-05
4.743039608001709e-05
4.589557647705078e-05
4.443526268005371e-05
4.3138861656188965e-05
4.2051076889038086e-05
4.108250141143799e-05
4.0397047996520996e-05
3.987550735473633e-05
3.968179225921631e-05
3.97413969039917e-05
4.00543212890625e-05
4.062056541442871e-05
4.1544437408447266e-05
4.270672798156738e-05
4.4226646423339844e-05
4.598498344421387e-05
4.807114601135254e-05
5.050003528594971e-05
5.316734313964844e-05
5.6162476539611816e-05
5.932152271270752e-05
6.273388862609863e-05
6.622076034545898e-05
6.978213787078857e-05
7.334351539611816e-05
7.671117782592773e-05
7.984042167663574e-05
8.258223533630371e-05
8.478760719299316e-05
8.639693260192871e-05
8.738040924072266e-05
8.763372898101807e-05
8.705258369445801e-05
8.565187454223633e-05
8.346140384674072e-05
8.037686347961426e-05
7.66068696975708e-05
7.207691669464111e-05
6.689131259918213e-05
6.121397018432617e-05
5.5029988288879395e-05
4.8488378524780273e-05
4.144012928009033e-05
3.3989548683166504e-05
2.6047229766845703e-05
1.7598271369934082e-05
8.717179298400879e-06
-3.725290298461914e-07
-9.581446647644043e-06
-1.8611550331115723e-05
-2.7313828468322754e-05
-3.5390257835388184e-05
-4.2751431465148926e-05
-4.933774471282959e-05
-5.5223703384399414e-05
-6.0498714447021484e-05
-6.531178951263428e-05
-6.978213787078857e-05
-7.417798042297363e-05
-7.858872413635254e-05
-8.29845666885376e-05
-8.757412433624268e-05
-9.216368198394775e-05
-9.676814079284668e-05
-0.00010135769844055176
-0.00010590255260467529
-0.00011026859283447266
-0.00011453032493591309
-0.00011864304542541504
-0.00012286007404327393
-0.00012701749801635742
-0.00013136863708496094
-0.00013586878776550293
-0.00014071166515350342
-0.00014571845531463623
-0.0001510828733444214
-0.0001566559076309204
-0.00016234815120697021
-0.0001681298017501831
-0.0001739412546157837
-0.00017958879470825195
6.663799285888672e-05
6.569921970367432e-05
6.502866744995117e-05
6.438791751861572e-05
6.39110803604126e-05
6.335973739624023e-05
6.277859210968018e-05
6.218254566192627e-05
6.139278411865234e-05
6.0439109802246094e-05
5.9276819229125977e-05
5.792081356048584e-05
5.638599395751953e-05
5.46574592590332e-05
5.282461643218994e-05
5.081295967102051e-05
4.869699478149414e-05
4.6566128730773926e-05
4.442036151885986e-05
4.239380359649658e-05
4.042685031890869e-05
3.857910633087158e-05
3.692507743835449e-05
3.549456596374512e-05
3.4242868423461914e-05
3.319978713989258e-05
3.241002559661865e-05
3.193318843841553e-05
3.167986869812012e-05
3.167986869812012e-05
3.2007694244384766e-05
3.263354301452637e-05
3.3602118492126465e-05
3.485381603240967e-05
3.644824028015137e-05
3.838539123535156e-05
4.07099723815918e-05
4.336237907409668e-05
4.641711711883545e-05
4.979968070983887e-05
5.345046520233154e-05
5.733966827392578e-05
6.142258644104004e-05
6.558001041412354e-05
6.967782974243164e-05
7.371604442596436e-05
7.733702659606934e-05
8.074939250946045e-05
8.36402177810669e-05
8.603930473327637e-05
8.788704872131348e-05
8.909404277801514e-05
8.963048458099365e-05
8.945167064666748e-05
8.837878704071045e-05
8.630752563476562e-05
8.334219455718994e-05
7.930397987365723e-05
7.444620132446289e-05
6.881356239318848e-05
6.240606307983398e-05
5.5402517318725586e-05
4.7832727432250977e-05
3.9696693420410156e-05
3.109872341156006e-05
2.2113323211669922e-05
1.2964010238647461e-05
3.829598426818848e-06
-4.932284355163574e-06
-1.3262033462524414e-05
-2.0831823348999023e-05
-2.7701258659362793e-05
-3.376603126525879e-05
-3.910064697265625e-05
-4.4018030166625977e-05
-4.8547983169555664e-05
-5.2988529205322266e-05
-5.75333833694458e-05
-6.230175495147705e-05
-6.739795207977295e-05
-7.288157939910889e-05
-7.863342761993408e-05
-8.448958396911621e-05
-9.039044380187988e-05
-9.621679782867432e-05
-0.00010187923908233643
-0.00010731816291809082
-0.0001125633716583252
-0.0001176297664642334
-0.00012259185314178467
-0.00012758374214172363
-0.00013262033462524414
-0.0001377314329147339
-0.00014306604862213135
-0.00014856457710266113
-0.00015422701835632324
-0.00016011297702789307
-0.00016598403453826904
-0.00017184019088745117
-0.00017759203910827637
6.790459156036377e-05
6.699562072753906e-05
6.625056266784668e-05
6.549060344696045e-05
6.4849853515625e-05
6.408989429473877e-05
6.316602230072021e-05
6.218254566192627e-05
6.097555160522461e-05
5.955994129180908e-05
5.793571472167969e-05
5.613267421722412e-05
5.398690700531006e-05
5.179643630981445e-05
4.933774471282959e-05
4.680454730987549e-05
4.427134990692139e-05
4.166364669799805e-05
3.910064697265625e-05
3.670156002044678e-05
3.439188003540039e-05
3.2275915145874023e-05
3.0308961868286133e-05
2.8595328330993652e-05
2.7105212211608887e-05
2.5838613510131836e-05
2.4899840354919434e-05
2.4184584617614746e-05
2.378225326538086e-05
2.364814281463623e-05
2.3812055587768555e-05
2.4259090423583984e-05
2.5078654289245605e-05
2.6181340217590332e-05
2.7671456336975098e-05
2.9593706130981445e-05
3.1948089599609375e-05
3.471970558166504e-05
3.793835639953613e-05
4.155933856964111e-05
4.5627355575561523e-05
4.997849464416504e-05
5.4717063903808594e-05
5.9604644775390625e-05
6.449222564697266e-05
6.945431232452393e-05
7.429718971252441e-05
7.894635200500488e-05
8.341670036315918e-05
8.769333362579346e-05
9.171664714813232e-05
9.554624557495117e-05
9.897351264953613e-05
0.00010186433792114258
0.00010398030281066895
0.00010502338409423828
0.00010460615158081055
0.0001027137041091919
9.934604167938232e-05
9.43988561630249e-05
8.80509614944458e-05
8.051097393035889e-05
7.192790508270264e-05
6.246566772460938e-05
5.2362680435180664e-05
4.1812658309936523e-05
3.1247735023498535e-05
2.09808349609375e-05
1.125037670135498e-05
2.339482307434082e-06
-5.498528480529785e-06
-1.2353062629699707e-05
-1.823902130126953e-05
-2.326071262359619e-05
-2.7745962142944336e-05
-3.1948089599609375e-05
-3.619492053985596e-05
-4.069507122039795e-05
-4.5686960220336914e-05
-5.123019218444824e-05
-5.7384371757507324e-05
-6.401538848876953e-05