# vtk DataFile Version 3.0
2D PINN Solution
ASCII
DATASET STRUCTURED_GRID
DIMENSIONS 100 100 1
POINTS 10000 float
-1.0 -1.0 0.0
-0.9797979797979798 -1.0 0.0
-0.9595959595959596 -1.0 0.0
-0.9393939393939394 -1.0 0.0
-0.9191919191919192 -1.0 0.0
-0.898989898989899 -1.0 0.0
-0.8787878787878788 -1.0 0.0
-0.8585858585858586 -1.0 0.0
-0.8383838383838383 -1.0 0.0
-0.8181818181818181 -1.0 0.0
-0.797979797979798 -1.0 0.0
-0.7777777777777778 -1.0 0.0
-0.7575757575757576 -1.0 0.0
-0.7373737373737373 -1.0 0.0
-0.7171717171717171 -1.0 0.0
-0.696969696969697 -1.0 0.0
-0.6767676767676767 -1.0 0.0
-0.6565656565656566 -1.0 0.0
-0.6363636363636364 -1.0 0.0
-0.6161616161616161 -1.0 0.0
-0.5959595959595959 -1.0 0.0
-0.5757575757575757 -1.0 0.0
-0.5555555555555556 -1.0 0.0
-0.5353535353535352 -1.0 0.0
-0.5151515151515151 -1.0 0.0
-0.4949494949494949 -1.0 0.0
-0.4747474747474747 -1.0 0.0
-0.4545454545454545 -1.0 0.0
-0.43434343434343425 -1.0 0.0
-0.41414141414141414 -1.0 0.0
-0.3939393939393939 -1.0 0.0
-0.3737373737373737 -1.0 0.0
-0.3535353535353535 -1.0 0.0
-0.33333333333333326 -1.0 0.0
-0.31313131313131304 -1.0 0.0
-0.2929292929292928 -1.0 0.0
-0.2727272727272727 -1.0 0.0
-0.2525252525252525 -1.0 0.0
-0.23232323232323226 -1.0 0.0
-0.21212121212121204 -1.0 0.0
-0.19191919191919182 -1.0 0.0
-0.1717171717171716 -1.0 0.0
-0.1515151515151515 -1.0 0.0
-0.13131313131313127 -1.0 0.0
-0.11111111111111105 -1.0 0.0
-0.09090909090909083 -1.0 0.0
-0.07070707070707061 -1.0 0.0
-0.050505050505050386 -1.0 0.0
-0.030303030303030276 -1.0 0.0
-0.010101010101010055 -1.0 0.0
0.010101010101010166 -1.0 0.0
0.030303030303030498 -1.0 0.0
0.05050505050505061 -1.0 0.0
0.07070707070707072 -1.0 0.0
0.09090909090909105 -1.0 0.0
0.11111111111111116 -1.0 0.0
0.1313131313131315 -1.0 0.0
0.1515151515151516 -1.0 0.0
0.1717171717171717 -1.0 0.0
0.19191919191919204 -1.0 0.0
0.21212121212121215 -1.0 0.0
0.2323232323232325 -1.0 0.0
0.2525252525252526 -1.0 0.0
0.27272727272727293 -1.0 0.0
0.29292929292929304 -1.0 0.0
0.31313131313131315 -1.0 0.0
0.3333333333333335 -1.0 0.0
0.3535353535353536 -1.0 0.0
0.3737373737373739 -1.0 0.0
0.39393939393939403 -1.0 0.0
0.41414141414141437 -1.0 0.0
0.4343434343434345 -1.0 0.0
0.4545454545454546 -1.0 0.0
0.4747474747474749 -1.0 0.0
0.49494949494949503 -1.0 0.0
0.5151515151515154 -1.0 0.0
0.5353535353535355 -1.0 0.0
0.5555555555555556 -1.0 0.0
0.5757575757575759 -1.0 0.0
0.595959595959596 -1.0 0.0
0.6161616161616164 -1.0 0.0
0.6363636363636365 -1.0 0.0
0.6565656565656568 -1.0 0.0
0.6767676767676769 -1.0 0.0
0.696969696969697 -1.0 0.0
0.7171717171717173 -1.0 0.0
0.7373737373737375 -1.0 0.0
0.7575757575757578 -1.0 0.0
0.7777777777777779 -1.0 0.0
0.7979797979797982 -1.0 0.0
0.8181818181818183 -1.0 0.0
0.8383838383838385 -1.0 0.0
0.8585858585858588 -1.0 0.0
0.8787878787878789 -1.0 0.0
0.8989898989898992 -1.0 0.0
0.9191919191919193 -1.0 0.0
0.9393939393939394 -1.0 0.0
0.9595959595959598 -1.0 0.0
0.9797979797979799 -1.0 0.0
1.0 -1.0 0.0
-1.0 -0.9797979797979798 0.0
-0.9797979797979798 -0.9797979797979798 0.0
-0.9595959595959596 -0.9797979797979798 0.0
-0.9393939393939394 -0.9797979797979798 0.0
-0.9191919191919192 -0.9797979797979798 0.0
-0.898989898989899 -0.9797979797979798 0.0
-0.8787878787878788 -0.9797979797979798 0.0
-0.8585858585858586 -0.9797979797979798 0.0
-0.8383838383838383 -0.9797979797979798 0.0
-0.8181818181818181 -0.9797979797979798 0.0
-0.797979797979798 -0.9797979797979798 0.0
-0.7777777777777778 -0.9797979797979798 0.0
-0.7575757575757576 -0.9797979797979798 0.0
-0.7373737373737373 -0.9797979797979798 0.0
-0.7171717171717171 -0.9797979797979798 0.0
-0.696969696969697 -0.9797979797979798 0.0
-0.6767676767676767 -0.9797979797979798 0.0
-0.6565656565656566 -0.9797979797979798 0.0
-0.6363636363636364 -0.9797979797979798 0.0
-0.6161616161616161 -0.9797979797979798 0.0
-0.5959595959595959 -0.9797979797979798 0.0
-0.5757575757575757 -0.9797979797979798 0.0
-0.5555555555555556 -0.9797979797979798 0.0
-0.5353535353535352 -0.9797979797979798 0.0
-0.5151515151515151 -0.9797979797979798 0.0
-0.4949494949494949 -0.9797979797979798 0.0
-0.4747474747474747 -0.9797979797979798 0.0
-0.4545454545454545 -0.9797979797979798 0.0
-0.43434343434343425 -0.9797979797979798 0.0
-0.41414141414141414 -0.9797979797979798 0.0
-0.3939393939393939 -0.9797979797979798 0.0
-0.3737373737373737 -0.9797979797979798 0.0
-0.3535353535353535 -0.9797979797979798 0.0
-0.33333333333333326 -0.9797979797979798 0.0
-0.31313131313131304 -0.9797979797979798 0.0
-0.2929292929292928 -0.9797979797979798 0.0
-0.2727272727272727 -0.9797979797979798 0.0
-0.2525252525252525 -0.9797979797979798 0.0
-0.23232323232323226 -0.9797979797979798 0.0
-0.21212121212121204 -0.9797979797979798 0.0
-0.19191919191919182 -0.9797979797979798 0.0
-0.1717171717171716 -0.9797979797979798 0.0
-0.1515151515151515 -0.9797979797979798 0.0
-0.13131313131313127 -0.9797979797979798 0.0
-0.11111111111111105 -0.9797979797979798 0.0
-0.09090909090909083 -0.9797979797979798 0.0
-0.07070707070707061 -0.9797979797979798 0.0
-0.050505050505050386 -0.9797979797979798 0.0
-0.030303030303030276 -0.9797979797979798 0.0
-0.010101010101010055 -0.9797979797979798 0.0
0.010101010101010166 -0.9797979797979798 0.0
0.030303030303030498 -0.9797979797979798 0.0
0.05050505050505061 -0.9797979797979798 0.0
0.07070707070707072 -0.9797979797979798 0.0
0.09090909090909105 -0.9797979797979798 0.0
0.11111111111111116 -0.9797979797979798 0.0
0.1313131313131315 -0.9797979797979798 0.0
0.1515151515151516 -0.9797979797979798 0.0
0.1717171717171717 -0.9797979797979798 0.0
0.19191919191919204 -0.9797979797979798 0.0
0.21212121212121215 -0.9797979797979798 0.0
0.2323232323232325 -0.9797979797979798 0.0
0.2525252525252526 -0.9797979797979798 0.0
0.27272727272727293 -0.9797979797979798 0.0
0.29292929292929304 -0.9797979797979798 0.0
0.31313131313131315 -0.9797979797979798 0.0
0.3333333333333335 -0.9797979797979798 0.0
0.3535353535353536 -0.9797979797979798 0.0
0.3737373737373739 -0.9797979797979798 0.0
0.39393939393939403 -0.9797979797979798 0.0
0.41414141414141437 -0.9797979797979798 0.0
0.4343434343434345 -0.9797979797979798 0.0
0.4545454545454546 -0.9797979797979798 0.0
0.4747474747474749 -0.9797979797979798 0.0
0.49494949494949503 -0.9797979797979798 0.0
0.5151515151515154 -0.9797979797979798 0.0
0.5353535353535355 -0.9797979797979798 0.0
0.5555555555555556 -0.9797979797979798 0.0
0.5757575757575759 -0.9797979797979798 0.0
0.595959595959596 -0.9797979797979798 0.0
0.6161616161616164 -0.9797979797979798 0.0
0.6363636363636365 -0.9797979797979798 0.0
0.6565656565656568 -0.9797979797979798 0.0
0.6767676767676769 -0.9797979797979798 0.0
0.696969696969697 -0.9797979797979798 0.0
0.7171717171717173 -0.9797979797979798 0.0
0.7373737373737375 -0.9797979797979798 0.0
0.7575757575757578 -0.9797979797979798 0.0
0.7777777777777779 -0.9797979797979798 0.0
0.7979797979797982 -0.9797979797979798 0.0
0.8181818181818183 -0.9797979797979798 0.0
0.8383838383838385 -0.9797979797979798 0.0
0.8585858585858588 -0.9797979797979798 0.0
0.8787878787878789 -0.9797979797979798 0.0
0.8989898989898992 -0.9797979797979798 0.0
0.9191919191919193 -0.9797979797979798 0.0
0.9393939393939394 -0.9797979797979798 0.0
0.9595959595959598 -0.9797979797979798 0.0
0.9797979797979799 -0.9797979797979798 0.0
1.0 -0.9797979797979798 0.0
-1.0 -0.9595959595959596 0.0
-0.9797979797979798 -0.9595959595959596 0.0
-0.9595959595959596 -0.9595959595959596 0.0
-0.9393939393939394 -0.9595959595959596 0.0
-0.9191919191919192 -0.9595959595959596 0.0
-0.898989898989899 -0.9595959595959596 0.0
-0.8787878787878788 -0.9595959595959596 0.0
-0.8585858585858586 -0.9595959595959596 0.0
-0.8383838383838383 -0.9595959595959596 0.0
-0.8181818181818181 -0.9595959595959596 0.0
-0.797979797979798 -0.9595959595959596 0.0
-0.7777777777777778 -0.9595959595959596 0.0
-0.7575757575757576 -0.9595959595959596 0.0
-0.7373737373737373 -0.9595959595959596 0.0
-0.7171717171717171 -0.9595959595959596 0.0
-0.696969696969697 -0.9595959595959596 0.0
-0.6767676767676767 -0.9595959595959596 0.0
-0.6565656565656566 -0.9595959595959596 0.0
-0.6363636363636364 -0.9595959595959596 0.0
-0.6161616161616161 -0.9595959595959596 0.0
-0.5959595959595959 -0.9595959595959596 0.0
-0.5757575757575757 -0.9595959595959596 0.0
-0.5555555555555556 -0.9595959595959596 0.0
-0.5353535353535352 -0.9595959595959596 0.0
-0.5151515151515151 -0.9595959595959596 0.0
-0.4949494949494949 -0.9595959595959596 0.0
-0.4747474747474747 -0.9595959595959596 0.0
-0.4545454545454545 -0.9595959595959596 0.0
-0.43434343434343425 -0.9595959595959596 0.0
-0.41414141414141414 -0.9595959595959596 0.0
-0.3939393939393939 -0.9595959595959596 0.0
-0.3737373737373737 -0.9595959595959596 0.0
-0.3535353535353535 -0.9595959595959596 0.0
-0.33333333333333326 -0.9595959595959596 0.0
-0.31313131313131304 -0.9595959595959596 0.0
-0.2929292929292928 -0.9595959595959596 0.0
-0.2727272727272727 -0.9595959595959596 0.0
-0.2525252525252525 -0.9595959595959596 0.0
-0.23232323232323226 -0.9595959595959596 0.0
-0.21212121212121204 -0.9595959595959596 0.0
-0.19191919191919182 -0.9595959595959596 0.0
-0.1717171717171716 -0.9595959595959596 0.0
-0.1515151515151515 -0.9595959595959596 0.0
-0.13131313131313127 -0.9595959595959596 0.0
-0.11111111111111105 -0.9595959595959596 0.0
-0.09090909090909083 -0.9595959595959596 0.0
-0.07070707070707061 -0.9595959595959596 0.0
-0.050505050505050386 -0.9595959595959596 0.0
-0.030303030303030276 -0.9595959595959596 0.0
-0.010101010101010055 -0.9595959595959596 0.0
0.010101010101010166 -0.9595959595959596 0.0
0.030303030303030498 -0.9595959595959596 0.0
0.05050505050505061 -0.9595959595959596 0.0
0.07070707070707072 -0.9595959595959596 0.0
0.09090909090909105 -0.9595959595959596 0.0
0.11111111111111116 -0.9595959595959596 0.0
0.1313131313131315 -0.9595959595959596 0.0
0.1515151515151516 -0.9595959595959596 0.0
0.1717171717171717 -0.9595959595959596 0.0
0.19191919191919204 -0.9595959595959596 0.0
0.21212121212121215 -0.9595959595959596 0.0
[...]
POINT_DATA 10000
SCALARS u float 1
LOOKUP_TABLE default
0.0001922398805618286
0.0001786947250366211
0.00016483664512634277
0.00015106797218322754
0.00013731420040130615
0.00012373924255371094
0.00011047720909118652
9.764730930328369e-05
8.542835712432861e-05
7.383525371551514e-05
6.29723072052002e-05
5.2988529205322266e-05
4.3839216232299805e-05
3.579258918762207e-05
2.8640031814575195e-05
2.2485852241516113e-05
1.7330050468444824e-05
1.3127923011779785e-05
9.715557098388672e-06
7.212162017822266e-06
5.27501106262207e-06
3.904104232788086e-06
3.0100345611572266e-06
2.4437904357910156e-06
1.996755599975586e-06
1.6838312149047852e-06
1.3709068298339844e-06
9.834766387939453e-07
6.109476089477539e-07
1.341104507446289e-07
-2.8312206268310547e-07
-7.003545761108398e-07
-1.043081283569336e-06
-1.1473894119262695e-06
-1.043081283569336e-06
-6.705522537231445e-07
2.9802322387695312e-08
1.1026859283447266e-06
2.518296241760254e-06
4.291534423828125e-06
6.467103958129883e-06
9.03010368347168e-06
1.2010335922241211e-05
1.563131809234619e-05
1.9818544387817383e-05
2.4572014808654785e-05
3.02046537399292e-05
3.649294376373291e-05
4.343688488006592e-05
5.0768256187438965e-05
5.8323144912719727e-05
6.562471389770508e-05
7.209181785583496e-05
7.745623588562012e-05
8.13901424407959e-05
8.372962474822998e-05
8.460879325866699e-05
8.434057235717773e-05
8.356571197509766e-05
8.29547643661499e-05
8.317828178405762e-05
8.495151996612549e-05
8.845329284667969e-05
9.362399578094482e-05
0.00010019540786743164
0.00010725855827331543
0.00011377036571502686
0.0001182854175567627
0.00011961162090301514
0.00011703372001647949
0.00011041760444641113
0.00010065734386444092
8.894503116607666e-05
7.709860801696777e-05
6.645917892456055e-05
5.796551704406738e-05
5.1856040954589844e-05
4.807114601135254e-05
4.559755325317383e-05
4.3973326683044434e-05
4.239380359649658e-05
4.032254219055176e-05
3.775954246520996e-05
3.52710485458374e-05
3.382563591003418e-05
3.4436583518981934e-05
3.784894943237305e-05
4.4286251068115234e-05
5.2928924560546875e-05
6.242096424102783e-05
7.058680057525635e-05
7.528066635131836e-05
7.44163990020752e-05
6.67273998260498e-05
5.1647424697875977e-05
2.9802322387695312e-05
2.518296241760254e-06
-2.8192996978759766e-05
-6.00963830947876e-05
-9.104609489440918e-05
0.00018665194511413574
0.00017230212688446045
0.0001579970121383667
0.00014379620552062988
0.00012980401515960693
0.00011613965034484863
0.00010293722152709961
9.021162986755371e-05
7.814168930053711e-05
6.674230098724365e-05
5.626678466796875e-05
4.6640634536743164e-05
3.789365291595459e-05
3.0159950256347656e-05
2.3365020751953125e-05
1.7598271369934082e-05
1.2695789337158203e-05
8.732080459594727e-06
5.587935447692871e-06
3.129243850708008e-06
1.4007091522216797e-06
1.7881393432617188e-07
-6.258487701416016e-07
-1.1175870895385742e-06
-1.3113021850585938e-06
-1.4156103134155273e-06
-1.4007091522216797e-06
-1.4007091522216797e-06
-1.4007091522216797e-06
-1.3560056686401367e-06
-1.2516975402832031e-06
-1.2218952178955078e-06
-9.834766387939453e-07
-7.897615432739258e-07
-4.172325134277344e-07
5.960464477539063e-08
5.662441253662109e-07
1.2069940567016602e-06
1.9371509552001953e-06
2.726912498474121e-06
3.6209821701049805e-06
4.5299530029296875e-06
5.662441253662109e-06
7.063150405883789e-06
8.881092071533203e-06
1.1339783668518066e-05
1.4439225196838379e-05
1.8388032913208008e-05
2.3171305656433105e-05
2.8759241104125977e-05
3.49581241607666e-05
4.144012928009033e-05
4.781782627105713e-05
5.367398262023926e-05
5.862116813659668e-05
6.246566772460938e-05
6.496906280517578e-05
6.6414475440979e-05
6.711483001708984e-05
6.777048110961914e-05
6.90072774887085e-05
7.130205631256104e-05
7.531046867370605e-05
8.101761341094971e-05
8.824467658996582e-05
9.63360071182251e-05
0.00010435283184051514
0.00011101365089416504
0.00011494755744934082
0.00011521577835083008
0.00011126697063446045
0.00010357797145843506
9.322166442871094e-05
8.19861888885498e-05
7.131695747375488e-05
6.245076656341553e-05
5.599856376647949e-05
5.176663398742676e-05
4.933774471282959e-05
4.792213439941406e-05
4.67449426651001e-05
4.51207160949707e-05
4.284083843231201e-05
4.006922245025635e-05
3.775954246520996e-05
3.682076930999756e-05
3.820657730102539e-05
4.254281520843506e-05
4.9486756324768066e-05
5.809962749481201e-05
6.668269634246826e-05
7.31348991394043e-05
7.528066635131836e-05
7.145106792449951e-05
6.076693534851074e-05
4.310905933380127e-05
1.9177794456481934e-05
-9.149312973022461e-06
-3.992021083831787e-05
-7.098913192749023e-05
0.00017833709716796875
0.00016351044178009033
0.00014875829219818115
0.00013433396816253662
0.00012029707431793213
0.00010667741298675537
9.360909461975098e-05
8.119642734527588e-05
6.949901580810547e-05
5.857646465301514e-05
4.8547983169555664e-05
3.935396671295166e-05
3.11732292175293e-05
2.3946166038513184e-05
1.7598271369934082e-05
1.2263655662536621e-05
7.808208465576172e-06
4.1425228118896484e-06
1.296401023864746e-06
-8.195638656616211e-07
-2.3692846298217773e-06
-3.3676624298095703e-06
-3.919005393981934e-06
-4.127621650695801e-06
-4.1425228118896484e-06
-3.948807716369629e-06
-3.606081008911133e-06
-3.0994415283203125e-06
-2.5779008865356445e-06
-1.9669532775878906e-06
-1.3560056686401367e-06
-6.556510925292969e-07
1.043081283569336e-07
9.5367431640625e-07
1.7285346984863281e-06
2.5331974029541016e-06
3.203749656677246e-06
3.7997961044311523e-06
4.172325134277344e-06
4.306435585021973e-06
4.202127456665039e-06
3.933906555175781e-06
3.5315752029418945e-06
3.084540367126465e-06
2.8312206268310547e-06
2.9355287551879883e-06
3.56137752532959e-06
5.036592483520508e-06
7.331371307373047e-06
1.0639429092407227e-05
1.4901161193847656e-05
1.990795135498047e-05
2.5451183319091797e-05
3.102421760559082e-05
3.6343932151794434e-05
4.100799560546875e-05
4.470348358154297e-05
4.7579407691955566e-05
4.972517490386963e-05
5.1647424697875977e-05
5.386769771575928e-05
5.6996941566467285e-05
6.145238876342773e-05
6.759166717529297e-05
7.537007331848145e-05
8.440017700195312e-05
9.368360042572021e-05
0.00010223686695098877
0.00010867416858673096
0.00011168420314788818
0.00011058151721954346
0.00010529160499572754
9.676814079284668e-05
8.64565372467041e-05
7.608532905578613e-05
6.705522537231445e-05
6.0230493545532227e-05
5.570054054260254e-05
5.3122639656066895e-05
5.1856040954589844e-05
5.1021575927734375e-05
4.991888999938965e-05
4.801154136657715e-05
4.538893699645996e-05
4.2498111724853516e-05
4.03672456741333e-05
4.0024518966674805e-05
4.220008850097656e-05
4.717707633972168e-05
5.449354648590088e-05
6.268918514251709e-05
6.99162483215332e-05
7.420778274536133e-05
7.361173629760742e-05
6.67870044708252e-05
5.315244197845459e-05
3.30507755279541e-05
7.614493370056152e-06
-2.1398067474365234e-05
-5.194544792175293e-05
0.0001675635576248169
0.0001523345708847046
0.00013743340969085693
0.00012302398681640625
0.00010898709297180176
9.56505537033081e-05
8.291006088256836e-05
7.095932960510254e-05
5.969405174255371e-05
4.941225051879883e-05
3.9950013160705566e-05
3.1381845474243164e-05
2.3871660232543945e-05
1.7210841178894043e-05
1.1488795280456543e-05
6.660819053649902e-06
2.726912498474121e-06
-4.3213367462158203e-07
-2.8759241104125977e-06
-4.604458808898926e-06
-5.781650543212891e-06
-6.511807441711426e-06
-6.735324859619141e-06
-6.660819053649902e-06
-6.303191184997559e-06
-5.7220458984375e-06
-4.932284355163574e-06
-3.948807716369629e-06
-2.86102294921875e-06
-1.6391277313232422e-06
-2.384185791015625e-07
1.1771917343139648e-06
2.652406692504883e-06
4.202127456665039e-06
5.617737770080566e-06
6.973743438720703e-06
8.061528205871582e-06
8.881092071533203e-06
9.179115295410156e-06
9.134411811828613e-06
8.493661880493164e-06
7.3909759521484375e-06
5.8710575103759766e-06
3.933906555175781e-06
1.8328428268432617e-06
-8.940696716308594e-08
-1.8030405044555664e-06
-2.86102294921875e-06
-3.1739473342895508e-06
-2.4586915969848633e-06
-5.811452865600586e-07
2.339482307434082e-06
6.22868537902832e-06
1.080334186553955e-05
1.5661120414733887e-05
2.0444393157958984e-05
2.4884939193725586e-05
2.8714537620544434e-05
3.203749656677246e-05
3.510713577270508e-05
3.828108310699463e-05
4.222989082336426e-05
4.729628562927246e-05
5.389750003814697e-05
6.209313869476318e-05
7.168948650360107e-05
8.207559585571289e-05
9.222328662872314e-05
0.00010082125663757324
0.00010654330253601074
0.00010828673839569092
0.00010569393634796143
9.936094284057617e-05
9.040534496307373e-05
8.07046890258789e-05
7.171928882598877e-05
6.459653377532959e-05
5.981326103210449e-05
5.7131052017211914e-05
5.587935447692871e-05
5.5283308029174805e-05
5.467236042022705e-05
5.322694778442383e-05
5.0902366638183594e-05
4.781782627105713e-05
4.486739635467529e-05
4.303455352783203e-05
4.3332576751708984e-05
4.628300666809082e-05
5.18113374710083e-05
5.8963894844055176e-05
6.632506847381592e-05
7.189810276031494e-05
7.365643978118896e-05
7.012486457824707e-05
6.029009819030762e-05
4.38690185546875e-05
2.168118953704834e-05
-4.976987838745117e-06
-3.4227967262268066e-05
0.00015459954738616943
0.00013914704322814941
0.0001242905855178833
0.00010989606380462646
9.629130363464355e-05
8.328258991241455e-05
7.109344005584717e-05
5.9664249420166016e-05
4.914402961730957e-05
3.9517879486083984e-05
3.077089786529541e-05
2.302229404449463e-05
1.6137957572937012e-05
1.023709774017334e-05
5.185604095458984e-06
1.0579824447631836e-06
-2.2798776626586914e-06
-4.9173831939697266e-06
-6.8247318267822266e-06
-8.106231689453125e-06
-8.851289749145508e-06
-9.119510650634766e-06
-8.970499038696289e-06
-8.463859558105469e-06
-7.644295692443848e-06
-6.586313247680664e-06
-5.319714546203613e-06
-3.7550926208496094e-06
-2.0265579223632812e-06
-8.940696716308594e-08
2.0563602447509766e-06
4.291534423828125e-06
6.616115570068359e-06
9.015202522277832e-06
1.1295080184936523e-05
1.3366341590881348e-05
1.5109777450561523e-05
1.6480684280395508e-05
1.7210841178894043e-05
1.7240643501281738e-05
1.6450881958007812e-05
1.4901161193847656e-05
1.2621283531188965e-05
9.685754776000977e-06
6.243586540222168e-06
2.473592758178711e-06
-1.3262033462524414e-06
-4.76837158203125e-06
-7.569789886474609e-06
-9.611248970031738e-06
-1.0445713996887207e-05
-1.0102987289428711e-05
-8.419156074523926e-06
-5.677342414855957e-06
-2.0712614059448242e-06
2.115964889526367e-06
6.4373016357421875e-06
1.0773539543151855e-05
1.4871358871459961e-05
1.8805265426635742e-05
2.2932887077331543e-05
2.7582049369812012e-05
3.324449062347412e-05
4.017353057861328e-05
4.871189594268799e-05
5.874037742614746e-05
6.987154483795166e-05
8.127093315124512e-05
9.173154830932617e-05
9.982287883758545e-05
0.00010445713996887207
0.00010471045970916748
0.00010082125663757324
9.366869926452637e-05
8.490681648254395e-05
7.623434066772461e-05
6.908178329467773e-05
6.406009197235107e-05
6.118416786193848e-05
5.9992074966430664e-05
5.9664249420166016e-05
5.9410929679870605e-05
5.8516860008239746e-05
5.650520324707031e-05
5.352497100830078e-05
5.009770393371582e-05
4.719197750091553e-05
4.579126834869385e-05
4.678964614868164e-05
5.035102367401123e-05
5.6162476539611816e-05
6.280839443206787e-05
6.885826587677002e-05
7.227063179016113e-05
7.131695747375488e-05
6.471574306488037e-05
5.1915645599365234e-05
3.3095479011535645e-05
9.149312973022461e-06
-1.8343329429626465e-05
0.00013965368270874023
0.0001242905855178833
0.00010952353477478027
9.551644325256348e-05
8.22991132736206e-05
6.982684135437012e-05
5.830824375152588e-05
4.762411117553711e-05
3.790855407714844e-05
2.905726432800293e-05
2.1249055862426758e-05
1.4275312423706055e-05
8.314847946166992e-06
3.1739473342895508e-06
-1.0132789611816406e-06
-4.380941390991211e-06
-7.033348083496094e-06
-8.955597877502441e-06
-1.023709774017334e-05
-1.0982155799865723e-05
-1.1175870895385742e-05
-1.093745231628418e-05
-1.029670238494873e-05
-9.328126907348633e-06
-8.001923561096191e-06
-6.3478946685791016e-06
-4.51505184173584e-06
-2.339482307434082e-06
1.1920928955078125e-07
2.816319465637207e-06
5.796551704406738e-06
8.985400199890137e-06
1.2248754501342773e-05
1.558661460876465e-05
1.882016658782959e-05
2.1845102310180664e-05
2.4497509002685547e-05
2.6598572731018066e-05
2.790987491607666e-05
2.8446316719055176e-05
2.7865171432495117e-05
2.633035182952881e-05
2.372264862060547e-05
2.0176172256469727e-05
1.5720725059509277e-05
1.068413257598877e-05
5.21540641784668e-06
-3.129243850708008e-07
-5.587935447692871e-06
-1.0251998901367188e-05
-1.3917684555053711e-05
-1.6391277313232422e-05
-1.749396324157715e-05
-1.71661376953125e-05
-1.545250415802002e-05
-1.2755393981933594e-05
-9.179115295410156e-06
-5.155801773071289e-06
-8.046627044677734e-07
3.6656856536865234e-06
8.404254913330078e-06
1.36643648147583e-05
1.9788742065429688e-05
2.707540988922119e-05
3.573298454284668e-05
4.598498344421387e-05
5.754828453063965e-05
6.973743438720703e-05
8.1673264503479e-05
9.199976921081543e-05
9.92119312286377e-05
0.00010232627391815186
0.0001010596752166748
9.60230827331543e-05
8.866190910339355e-05
8.068978786468506e-05
7.364153861999512e-05
6.847083568572998e-05
6.541609764099121e-05
6.41942024230957e-05
6.401538848876953e-05
6.417930126190186e-05
6.373226642608643e-05
6.224215030670166e-05
5.950033664703369e-05
5.583465099334717e-05
5.213916301727295e-05
4.941225051879883e-05
4.857778549194336e-05
5.0261616706848145e-05
5.424022674560547e-05
5.9917569160461426e-05
6.568431854248047e-05
6.996095180511475e-05
7.089972496032715e-05
6.701052188873291e-05
5.7369470596313477e-05
4.175305366516113e-05
2.072751522064209e-05
-4.544854164123535e-06
0.00012291967868804932
0.0001077800989151001
9.338557720184326e-05
7.992982864379883e-05
6.732344627380371e-05
5.56260347366333e-05
4.489719867706299e-05
3.5122036933898926e-05
2.633035182952881e-05
1.850724220275879e-05
1.1593103408813477e-05
5.632638931274414e-06
7.003545761108398e-07
-3.5315752029418945e-06
-6.8247318267822266e-06
-9.372830390930176e-06
-1.1205673217773438e-05
-1.2367963790893555e-05
-1.2964010238647461e-05
-1.30385160446167e-05
-1.259148120880127e-05
-1.1771917343139648e-05
-1.0564923286437988e-05
-8.970499038696289e-06
-7.092952728271484e-06
-4.842877388000488e-06
-2.3543834686279297e-06
5.364418029785156e-07
3.6954879760742188e-06
7.286667823791504e-06
1.1116266250610352e-05
1.5228986740112305e-05
1.952052116394043e-05
2.3886561393737793e-05
2.823770046234131e-05
3.2335519790649414e-05
3.598630428314209e-05
3.8996338844299316e-05
4.1231513023376465e-05
4.240870475769043e-05
4.2438507080078125e-05
4.1231513023376465e-05
3.872811794281006e-05
3.49879264831543e-05
3.0055642127990723e-05
2.4184584617614746e-05
1.7508864402770996e-05
1.0341405868530273e-05
3.0249357223510742e-06
-4.0084123611450195e-06
-1.0445713996887207e-05
-1.58846378326416e-05
-1.9982457160949707e-05
-2.2530555725097656e-05
-2.3499131202697754e-05
-2.2798776626586914e-05
-2.0831823348999023e-05
-1.7777085304260254e-05
-1.3843178749084473e-05
-9.432435035705566e-06
-4.4405460357666016e-06
1.1622905731201172e-06
7.554888725280762e-06
1.4990568161010742e-05
2.372264862060547e-05
3.3915042877197266e-05
4.553794860839844e-05
5.824863910675049e-05
7.115304470062256e-05
8.314847946166992e-05
9.271502494812012e-05
9.857118129730225e-05
0.00010009109973907471
9.743869304656982e-05
9.180605411529541e-05
8.471310138702393e-05
7.806718349456787e-05
7.295608520507812e-05
6.985664367675781e-05
6.853044033050537e-05
6.859004497528076e-05
6.89774751663208e-05
6.90072774887085e-05
6.793439388275146e-05
6.555020809173584e-05
6.192922592163086e-05
5.7756900787353516e-05
5.3942203521728516e-05
5.155801773071289e-05
5.1394104957580566e-05
5.3629279136657715e-05
5.780160427093506e-05
6.292760372161865e-05
6.733834743499756e-05
6.948411464691162e-05
6.763637065887451e-05
6.063282489776611e-05
4.8026442527770996e-05
2.9861927032470703e-05
7.033348083496094e-06
0.00010474026203155518
9.003281593322754e-05
7.633864879608154e-05
6.352365016937256e-05
5.176663398742676e-05
4.10228967666626e-05
3.126263618469238e-05
2.2545456886291504e-05
1.4796853065490723e-05
8.07642936706543e-06
2.3245811462402344e-06
-2.562999725341797e-06
-6.4820051193237305e-06
-9.59634780883789e-06
-1.195073127746582e-05
-1.3530254364013672e-05
-1.4454126358032227e-05
-1.481175422668457e-05
-1.4588236808776855e-05
-1.3887882232666016e-05
-1.2785196304321289e-05
-1.1324882507324219e-05
-9.47713851928711e-06
-7.241964340209961e-06
-4.693865776062012e-06
-1.862645149230957e-06
1.4007091522216797e-06
4.947185516357422e-06
8.925795555114746e-06
1.3306736946105957e-05
1.8075108528137207e-05
2.3171305656433105e-05
2.847611904144287e-05
3.390014171600342e-05
3.933906555175781e-05
4.455447196960449e-05
4.932284355163574e-05
5.336105823516846e-05
5.65648078918457e-05
5.874037742614746e-05
5.961954593658447e-05
5.9023499488830566e-05
5.698204040527344e-05
5.348026752471924e-05
4.856288433074951e-05
4.2319297790527344e-05
3.4943222999572754e-05
2.6628375053405762e-05
1.7851591110229492e-05
8.77678394317627e-06
-5.960464477539063e-08
-8.210539817810059e-06
-1.5422701835632324e-05
-2.1070241928100586e-05
-2.504885196685791e-05
-2.7105212211608887e-05
-2.7388334274291992e-05
-2.6047229766845703e-05
-2.3320317268371582e-05
-1.9475817680358887e-05
-1.4707446098327637e-05
-9.074807167053223e-06
-2.652406692504883e-06
4.693865776062012e-06
1.329183578491211e-05
2.32011079788208e-05
3.458559513092041e-05
4.723668098449707e-05
6.066262722015381e-05
7.377564907073975e-05
8.526444435119629e-05
9.362399578094482e-05
9.78708267211914e-05
9.779632091522217e-05
9.41157341003418e-05
8.83936882019043e-05
8.237361907958984e-05
7.745623588562012e-05
7.434189319610596e-05
7.306039333343506e-05
7.317960262298584e-05
7.382035255432129e-05
7.419288158416748e-05
7.368624210357666e-05
7.170438766479492e-05
6.827712059020996e-05
6.383657455444336e-05
5.926191806793213e-05
5.5596232414245605e-05
5.365908145904541e-05
5.410611629486084e-05
5.666911602020264e-05
6.0692429542541504e-05
6.4849853515625e-05
6.744265556335449e-05
6.705522537231445e-05
6.224215030670166e-05
5.213916301727295e-05
3.6716461181640625e-05
1.6391277313232422e-05
8.547306060791016e-05
7.152557373046875e-05
5.863606929779053e-05
4.680454730987549e-05
3.6075711250305176e-05
2.6419758796691895e-05
1.7896294593811035e-05
1.0341405868530273e-05
3.814697265625e-06
-1.6987323760986328e-06
-6.258487701416016e-06
-9.879469871520996e-06
-1.2695789337158203e-05
-1.4677643775939941e-05
-1.5944242477416992e-05
-1.652538776397705e-05
-1.6495585441589355e-05
-1.5944242477416992e-05
-1.4856457710266113e-05
-1.3381242752075195e-05
-1.150369644165039e-05
-9.328126907348633e-06
-6.8247318267822266e-06
-3.948807716369629e-06
-7.748603820800781e-07
2.771615982055664e-06
6.690621376037598e-06
1.1056661605834961e-05
1.5735626220703125e-05
2.0936131477355957e-05
2.6598572731018066e-05
3.2648444175720215e-05
3.8936734199523926e-05
4.5433640480041504e-05
5.193054676055908e-05
5.823373794555664e-05
6.400048732757568e-05
6.921589374542236e-05
7.353723049163818e-05
7.668137550354004e-05
7.846951484680176e-05
7.881224155426025e-05
7.750093936920166e-05
7.459521293640137e-05
7.006525993347168e-05
6.400048732757568e-05
5.646049976348877e-05
4.769861698150635e-05
3.795325756072998e-05
2.753734588623047e-05
1.679360866546631e-05
6.22868537902832e-06
-3.725290298461914e-06
-1.2487173080444336e-05
-1.965463161468506e-05
-2.4884939193725586e-05
-2.796947956085205e-05
-2.8967857360839844e-05
-2.804398536682129e-05
-2.5480985641479492e-05
-2.1442770957946777e-05
-1.6286969184875488e-05
-1.0147690773010254e-05
-3.0547380447387695e-06
5.125999450683594e-06
1.449882984161377e-05
2.5212764739990234e-05
3.740191459655762e-05
5.0693750381469727e-05
6.440281867980957e-05
7.724761962890625e-05
8.778274059295654e-05
9.460747241973877e-05
9.709596633911133e-05
9.566545486450195e-05
9.1552734375e-05
8.64267349243164e-05
8.191168308258057e-05
7.891654968261719e-05
7.766485214233398e-05
7.79181718826294e-05
7.876753807067871e-05
7.95125961303711e-05
7.940828800201416e-05
7.793307304382324e-05
7.474422454833984e-05