# vtk DataFile Version 3.0
2D PINN Solution
ASCII
DATASET STRUCTURED_GRID
DIMENSIONS 100 100 1
POINTS 10000 float
-1.0 -1.0 0.0
-0.9797979797979798 -1.0 0.0
-0.9595959595959596 -1.0 0.0
-0.9393939393939394 -1.0 0.0
-0.9191919191919192 -1.0 0.0
-0.898989898989899 -1.0 0.0
-0.8787878787878788 -1.0 0.0
-0.8585858585858586 -1.0 0.0
-0.8383838383838383 -1.0 0.0
-0.8181818181818181 -1.0 0.0
-0.797979797979798 -1.0 0.0
-0.7777777777777778 -1.0 0.0
-0.7575757575757576 -1.0 0.0
-0.7373737373737373 -1.0 0.0
-0.7171717171717171 -1.0 0.0
-0.696969696969697 -1.0 0.0
-0.6767676767676767 -1.0 0.0
-0.6565656565656566 -1.0 0.0
-0.6363636363636364 -1.0 0.0
-0.6161616161616161 -1.0 0.0
-0.5959595959595959 -1.0 0.0
-0.5757575757575757 -1.0 0.0
-0.5555555555555556 -1.0 0.0
-0.5353535353535352 -1.0 0.0
-0.5151515151515151 -1.0 0.0
-0.4949494949494949 -1.0 0.0
-0.4747474747474747 -1.0 0.0
-0.4545454545454545 -1.0 0.0
-0.43434343434343425 -1.0 0.0
-0.41414141414141414 -1.0 0.0
-0.3939393939393939 -1.0 0.0
-0.3737373737373737 -1.0 0.0
-0.3535353535353535 -1.0 0.0
-0.33333333333333326 -1.0 0.0
-0.31313131313131304 -1.0 0.0
-0.2929292929292928 -1.0 0.0
-0.2727272727272727 -1.0 0.0
-0.2525252525252525 -1.0 0.0
-0.23232323232323226 -1.0 0.0
-0.21212121212121204 -1.0 0.0
-0.19191919191919182 -1.0 0.0
-0.1717171717171716 -1.0 0.0
-0.1515151515151515 -1.0 0.0
-0.13131313131313127 -1.0 0.0
-0.11111111111111105 -1.0 0.0
-0.09090909090909083 -1.0 0.0
-0.07070707070707061 -1.0 0.0
-0.050505050505050386 -1.0 0.0
-0.030303030303030276 -1.0 0.0
-0.010101010101010055 -1.0 0.0
0.010101010101010166 -1.0 0.0
0.030303030303030498 -1.0 0.0
0.05050505050505061 -1.0 0.0
0.07070707070707072 -1.0 0.0
0.09090909090909105 -1.0 0.0
0.11111111111111116 -1.0 0.0
0.1313131313131315 -1.0 0.0
0.1515151515151516 -1.0 0.0
0.1717171717171717 -1.0 0.0
0.19191919191919204 -1.0 0.0
0.21212121212121215 -1.0 0.0
0.2323232323232325 -1.0 0.0
0.2525252525252526 -1.0 0.0
0.27272727272727293 -1.0 0.0
0.29292929292929304 -1.0 0.0
0.31313131313131315 -1.0 0.0
0.3333333333333335 -1.0 0.0
0.3535353535353536 -1.0 0.0
0.3737373737373739 -1.0 0.0
0.39393939393939403 -1.0 0.0
0.41414141414141437 -1.0 0.0
0.4343434343434345 -1.0 0.0
0.4545454545454546 -1.0 0.0
0.4747474747474749 -1.0 0.0
0.49494949494949503 -1.0 0.0
0.5151515151515154 -1.0 0.0
0.5353535353535355 -1.0 0.0
0.5555555555555556 -1.0 0.0
0.5757575757575759 -1.0 0.0
0.595959595959596 -1.0 0.0
0.6161616161616164 -1.0 0.0
0.6363636363636365 -1.0 0.0
0.6565656565656568 -1.0 0.0
0.6767676767676769 -1.0 0.0
0.696969696969697 -1.0 0.0
0.7171717171717173 -1.0 0.0
0.7373737373737375 -1.0 0.0
0.7575757575757578 -1.0 0.0
0.7777777777777779 -1.0 0.0
0.7979797979797982 -1.0 0.0
0.8181818181818183 -1.0 0.0
0.8383838383838385 -1.0 0.0
0.8585858585858588 -1.0 0.0
0.8787878787878789 -1.0 0.0
0.8989898989898992 -1.0 0.0
0.9191919191919193 -1.0 0.0
0.9393939393939394 -1.0 0.0
0.9595959595959598 -1.0 0.0
0.9797979797979799 -1.0 0.0
1.0 -1.0 0.0
-1.0 -0.9797979797979798 0.0
-0.9797979797979798 -0.9797979797979798 0.0
-0.9595959595959596 -0.9797979797979798 0.0
-0.9393939393939394 -0.9797979797979798 0.0
-0.9191919191919192 -0.9797979797979798 0.0
-0.898989898989899 -0.9797979797979798 0.0
-0.8787878787878788 -0.9797979797979798 0.0
-0.8585858585858586 -0.9797979797979798 0.0
-0.8383838383838383 -0.9797979797979798 0.0
-0.8181818181818181 -0.9797979797979798 0.0
-0.797979797979798 -0.9797979797979798 0.0
-0.7777777777777778 -0.9797979797979798 0.0
-0.7575757575757576 -0.9797979797979798 0.0
-0.7373737373737373 -0.9797979797979798 0.0
-0.7171717171717171 -0.9797979797979798 0.0
-0.696969696969697 -0.9797979797979798 0.0
-0.6767676767676767 -0.9797979797979798 0.0
-0.6565656565656566 -0.9797979797979798 0.0
-0.6363636363636364 -0.9797979797979798 0.0
-0.6161616161616161 -0.9797979797979798 0.0
-0.5959595959595959 -0.9797979797979798 0.0
-0.5757575757575757 -0.9797979797979798 0.0
-0.5555555555555556 -0.9797979797979798 0.0
-0.5353535353535352 -0.9797979797979798 0.0
-0.5151515151515151 -0.9797979797979798 0.0
-0.4949494949494949 -0.9797979797979798 0.0
-0.4747474747474747 -0.9797979797979798 0.0
-0.4545454545454545 -0.9797979797979798 0.0
-0.43434343434343425 -0.9797979797979798 0.0
-0.41414141414141414 -0.9797979797979798 0.0
-0.3939393939393939 -0.9797979797979798 0.0
-0.3737373737373737 -0.9797979797979798 0.0
-0.3535353535353535 -0.9797979797979798 0.0
-0.33333333333333326 -0.9797979797979798 0.0
-0.31313131313131304 -0.9797979797979798 0.0
-0.2929292929292928 -0.9797979797979798 0.0
-0.2727272727272727 -0.9797979797979798 0.0
-0.2525252525252525 -0.9797979797979798 0.0
-0.23232323232323226 -0.9797979797979798 0.0
-0.21212121212121204 -0.9797979797979798 0.0
-0.19191919191919182 -0.9797979797979798 0.0
-0.1717171717171716 -0.9797979797979798 0.0
-0.1515151515151515 -0.9797979797979798 0.0
-0.13131313131313127 -0.9797979797979798 0.0
-0.11111111111111105 -0.9797979797979798 0.0
-0.09090909090909083 -0.9797979797979798 0.0
-0.07070707070707061 -0.9797979797979798 0.0
-0.050505050505050386 -0.9797979797979798 0.0
-0.030303030303030276 -0.9797979797979798 0.0
-0.010101010101010055 -0.9797979797979798 0.0
0.010101010101010166 -0.9797979797979798 0.0
0.030303030303030498 -0.9797979797979798 0.0
0.05050505050505061 -0.9797979797979798 0.0
0.07070707070707072 -0.9797979797979798 0.0
0.09090909090909105 -0.9797979797979798 0.0
0.11111111111111116 -0.9797979797979798 0.0
0.1313131313131315 -0.9797979797979798 0.0
0.1515151515151516 -0.9797979797979798 0.0
0.1717171717171717 -0.9797979797979798 0.0
0.19191919191919204 -0.9797979797979798 0.0
0.21212121212121215 -0.9797979797979798 0.0
0.2323232323232325 -0.9797979797979798 0.0
0.2525252525252526 -0.9797979797979798 0.0
0.27272727272727293 -0.9797979797979798 0.0
0.29292929292929304 -0.9797979797979798 0.0
0.31313131313131315 -0.9797979797979798 0.0
0.3333333333333335 -0.9797979797979798 0.0
0.3535353535353536 -0.9797979797979798 0.0
0.3737373737373739 -0.9797979797979798 0.0
0.39393939393939403 -0.9797979797979798 0.0
0.41414141414141437 -0.9797979797979798 0.0
0.4343434343434345 -0.9797979797979798 0.0
0.4545454545454546 -0.9797979797979798 0.0
0.4747474747474749 -0.9797979797979798 0.0
0.49494949494949503 -0.9797979797979798 0.0
0.5151515151515154 -0.9797979797979798 0.0
0.5353535353535355 -0.9797979797979798 0.0
0.5555555555555556 -0.9797979797979798 0.0
0.5757575757575759 -0.9797979797979798 0.0
0.595959595959596 -0.9797979797979798 0.0
0.6161616161616164 -0.9797979797979798 0.0
0.6363636363636365 -0.9797979797979798 0.0
0.6565656565656568 -0.9797979797979798 0.0
0.6767676767676769 -0.9797979797979798 0.0
0.696969696969697 -0.9797979797979798 0.0
0.7171717171717173 -0.9797979797979798 0.0
0.7373737373737375 -0.9797979797979798 0.0
0.7575757575757578 -0.9797979797979798 0.0
0.7777777777777779 -0.9797979797979798 0.0
0.7979797979797982 -0.9797979797979798 0.0
0.8181818181818183 -0.9797979797979798 0.0
0.8383838383838385 -0.9797979797979798 0.0
0.8585858585858588 -0.9797979797979798 0.0
0.8787878787878789 -0.9797979797979798 0.0
0.8989898989898992 -0.9797979797979798 0.0
0.9191919191919193 -0.9797979797979798 0.0
0.9393939393939394 -0.9797979797979798 0.0
0.9595959595959598 -0.9797979797979798 0.0
0.9797979797979799 -0.9797979797979798 0.0
1.0 -0.9797979797979798 0.0
-1.0 -0.9595959595959596 0.0
-0.9797979797979798 -0.9595959595959596 0.0
-0.9595959595959596 -0.9595959595959596 0.0
-0.9393939393939394 -0.9595959595959596 0.0
-0.9191919191919192 -0.9595959595959596 0.0
-0.898989898989899 -0.9595959595959596 0.0
-0.8787878787878788 -0.9595959595959596 0.0
-0.8585858585858586 -0.9595959595959596 0.0
-0.8383838383838383 -0.9595959595959596 0.0
-0.8181818181818181 -0.9595959595959596 0.0
-0.797979797979798 -0.9595959595959596 0.0
-0.7777777777777778 -0.9595959595959596 0.0
-0.7575757575757576 -0.9595959595959596 0.0
-0.7373737373737373 -0.9595959595959596 0.0
-0.7171717171717171 -0.9595959595959596 0.0
-0.696969696969697 -0.9595959595959596 0.0
-0.6767676767676767 -0.9595959595959596 0.0
-0.6565656565656566 -0.9595959595959596 0.0
-0.6363636363636364 -0.9595959595959596 0.0
-0.6161616161616161 -0.9595959595959596 0.0
-0.5959595959595959 -0.9595959595959596 0.0
-0.5757575757575757 -0.9595959595959596 0.0
-0.5555555555555556 -0.9595959595959596 0.0
-0.5353535353535352 -0.9595959595959596 0.0
-0.5151515151515151 -0.9595959595959596 0.0
-0.4949494949494949 -0.9595959595959596 0.0
-0.4747474747474747 -0.9595959595959596 0.0
-0.4545454545454545 -0.9595959595959596 0.0
-0.43434343434343425 -0.9595959595959596 0.0
-0.41414141414141414 -0.9595959595959596 0.0
-0.3939393939393939 -0.9595959595959596 0.0
-0.3737373737373737 -0.9595959595959596 0.0
-0.3535353535353535 -0.9595959595959596 0.0
-0.33333333333333326 -0.9595959595959596 0.0
-0.31313131313131304 -0.9595959595959596 0.0
-0.2929292929292928 -0.9595959595959596 0.0
-0.2727272727272727 -0.9595959595959596 0.0
-0.2525252525252525 -0.9595959595959596 0.0
-0.23232323232323226 -0.9595959595959596 0.0
-0.21212121212121204 -0.9595959595959596 0.0
-0.19191919191919182 -0.9595959595959596 0.0
-0.1717171717171716 -0.9595959595959596 0.0
-0.1515151515151515 -0.9595959595959596 0.0
-0.13131313131313127 -0.9595959595959596 0.0
-0.11111111111111105 -0.9595959595959596 0.0
-0.09090909090909083 -0.9595959595959596 0.0
-0.07070707070707061 -0.9595959595959596 0.0
-0.050505050505050386 -0.9595959595959596 0.0
-0.030303030303030276 -0.9595959595959596 0.0
-0.010101010101010055 -0.9595959595959596 0.0
0.010101010101010166 -0.9595959595959596 0.0
0.030303030303030498 -0.9595959595959596 0.0
0.05050505050505061 -0.9595959595959596 0.0
0.07070707070707072 -0.9595959595959596 0.0
0.09090909090909105 -0.9595959595959596 0.0
0.11111111111111116 -0.9595959595959596 0.0
0.1313131313131315 -0.9595959595959596 0.0
0.1515151515151516 -0.9595959595959596 0.0
0.1717171717171717 -0.9595959595959596 0.0
0.19191919191919204 -0.9595959595959596 0.0
0.21212121212121215 -0.9595959595959596 0.0
[...]
POINT_DATA 10000
SCALARS u float 1
LOOKUP_TABLE default
2.224743366241455e-05
1.8268823623657227e-05
1.500546932220459e-05
1.2427568435668945e-05
1.0401010513305664e-05
8.866190910339355e-06
7.718801498413086e-06
6.9141387939453125e-06
6.332993507385254e-06
5.841255187988281e-06
5.3942203521728516e-06
4.887580871582031e-06
4.351139068603516e-06
3.516674041748047e-06
2.5331974029541016e-06
1.2218952178955078e-06
-4.172325134277344e-07
-2.5033950805664062e-06
-4.798173904418945e-06
-7.3909759521484375e-06
-1.029670238494873e-05
-1.3366341590881348e-05
-1.659989356994629e-05
-1.983344554901123e-05
-2.3037195205688477e-05
-2.6166439056396484e-05
-2.911686897277832e-05
-3.190338611602783e-05
-3.4436583518981934e-05
-3.674626350402832e-05
-3.886222839355469e-05
-4.0784478187561035e-05
-4.254281520843506e-05
-4.416704177856445e-05
-4.579126834869385e-05
-4.738569259643555e-05
-4.903972148895264e-05
-5.067884922027588e-05
-5.240738391876221e-05
-5.4135918617248535e-05
-5.5909156799316406e-05
-5.762279033660889e-05
-5.920231342315674e-05
-6.057322025299072e-05
-6.176531314849854e-05
-6.270408630371094e-05
-6.321072578430176e-05
-6.334483623504639e-05
-6.309151649475098e-05
-6.255507469177246e-05
-6.170570850372314e-05
-6.0692429542541504e-05
-5.958974361419678e-05
-5.857646465301514e-05
-5.792081356048584e-05
-5.760788917541504e-05
-5.8084726333618164e-05
-5.9276819229125977e-05
-6.139278411865234e-05
-6.449222564697266e-05
-6.860494613647461e-05
-7.367134094238281e-05
-7.952749729156494e-05
-8.605420589447021e-05
-9.301304817199707e-05
-0.0001001507043838501
-0.00010716915130615234
-0.0001137852668762207
-0.0001198500394821167
-0.00012515485286712646
-0.00012953579425811768
-0.00013290345668792725
-0.00013521313667297363
-0.000136643648147583
-0.00013719499111175537
-0.00013709068298339844
-0.00013653934001922607
-0.00013555586338043213
-0.00013455748558044434
-0.00013361871242523193
-0.0001329481601715088
-0.0001325756311416626
-0.00013273954391479492
-0.00013338029384613037
-0.00013463199138641357
-0.00013646483421325684
-0.000138893723487854
-0.0001417994499206543
-0.00014513731002807617
-0.00014890730381011963
-0.00015300512313842773
-0.00015729665756225586
-0.00016167759895324707
-0.00016607344150543213
-0.0001703798770904541
-0.00017452239990234375
-0.000178411602973938
-0.0001818537712097168
-0.00018487870693206787
-0.00018735229969024658
2.51084566116333e-05
2.1785497665405273e-05
1.919269561767578e-05
1.7195940017700195e-05
1.5795230865478516e-05
1.4841556549072266e-05
1.430511474609375e-05
1.4021992683410645e-05
1.3872981071472168e-05
1.3947486877441406e-05
1.385807991027832e-05
1.3694167137145996e-05
1.33514404296875e-05
1.2695789337158203e-05
1.1771917343139648e-05
1.029670238494873e-05
8.493661880493164e-06
6.258487701416016e-06
3.56137752532959e-06
4.917383193969727e-07
-2.8461217880249023e-06
-6.42240047454834e-06
-1.0192394256591797e-05
-1.3902783393859863e-05
-1.767277717590332e-05
-2.1204352378845215e-05
-2.4497509002685547e-05
-2.759695053100586e-05
-3.0353665351867676e-05
-3.2782554626464844e-05
-3.49879264831543e-05
-3.688037395477295e-05
-3.860890865325928e-05
-4.018843173980713e-05
-4.175305366516113e-05
-4.322826862335205e-05
-4.489719867706299e-05
-4.655122756958008e-05
-4.83095645904541e-05
-5.029141902923584e-05
-5.2362680435180664e-05
-5.449354648590088e-05
-5.6684017181396484e-05
-5.885958671569824e-05
-6.0886144638061523e-05
-6.280839443206787e-05
-6.452202796936035e-05
-6.595253944396973e-05
-6.711483001708984e-05
-6.793439388275146e-05
-6.860494613647461e-05
-6.89774751663208e-05
-6.936490535736084e-05
-6.970763206481934e-05
-7.021427154541016e-05
-7.104873657226562e-05
-7.233023643493652e-05
-7.428228855133057e-05
-7.687509059906006e-05
-8.022785186767578e-05
-8.442997932434082e-05
-8.93622636795044e-05
-9.498000144958496e-05
-0.0001010894775390625
-0.00010752677917480469
-0.0001141279935836792
-0.00012055039405822754
-0.0001266002655029297
-0.00013202428817749023
-0.0001366734504699707
-0.0001404285430908203
-0.00014318525791168213
-0.00014494359493255615
-0.00014573335647583008
-0.00014571845531463623
-0.00014497339725494385
-0.0001436769962310791
-0.00014215707778930664
-0.000140458345413208
-0.00013880431652069092
-0.0001372992992401123
-0.0001363009214401245
-0.00013574957847595215
-0.0001357048749923706
-0.00013621151447296143
-0.00013740360736846924
-0.00013911724090576172
-0.00014147162437438965
-0.00014431774616241455
-0.00014761090278625488
-0.00015129148960113525
-0.00015519559383392334
-0.00015935301780700684
-0.00016358494758605957
-0.00016775727272033691
-0.00017188489437103271
-0.00017568469047546387
-0.00017918646335601807
-0.00018227100372314453
-0.00018486380577087402
2.8580427169799805e-05
2.586841583251953e-05
2.3812055587768555e-05
2.2456049919128418e-05
2.16066837310791e-05
2.130866050720215e-05
2.130866050720215e-05
2.16066837310791e-05
2.1979212760925293e-05
2.244114875793457e-05
2.2843480110168457e-05
2.300739288330078e-05
2.2917985916137695e-05
2.2396445274353027e-05
2.1502375602722168e-05
2.0042061805725098e-05
1.8045306205749512e-05
1.5527009963989258e-05
1.2472271919250488e-05
8.970499038696289e-06
5.111098289489746e-06
9.238719940185547e-07
-3.337860107421875e-06
-7.763504981994629e-06
-1.2040138244628906e-05
-1.6123056411743164e-05
-1.989305019378662e-05
-2.3290514945983887e-05
-2.6345252990722656e-05
-2.8952956199645996e-05
-3.121793270111084e-05
-3.316998481750488e-05
-3.483891487121582e-05
-3.6329030990600586e-05
-3.7804245948791504e-05
-3.921985626220703e-05
-4.063546657562256e-05
-4.228949546813965e-05
-4.413723945617676e-05
-4.614889621734619e-05
-4.8413872718811035e-05
-5.091726779937744e-05
-5.353987216949463e-05
-5.631148815155029e-05
-5.917251110076904e-05
-6.198883056640625e-05
-6.477534770965576e-05
-6.739795207977295e-05
-6.985664367675781e-05
-7.210671901702881e-05
-7.420778274536133e-05
-7.602572441101074e-05
-7.781386375427246e-05
-7.952749729156494e-05
-8.133053779602051e-05
-8.319318294525146e-05
-8.553266525268555e-05
-8.815526962280273e-05
-9.128451347351074e-05
-9.50247049331665e-05
-9.933114051818848e-05
-0.00010415911674499512
-0.00010958313941955566
-0.0001153796911239624
-0.00012138485908508301
-0.00012740492820739746
-0.0001332014799118042
-0.00013865530490875244
-0.00014346837997436523
-0.00014756619930267334
-0.0001507103443145752
-0.0001528710126876831
-0.0001541227102279663
-0.0001544356346130371
-0.0001538097858428955
-0.000152587890625
-0.00015075504779815674
-0.00014857947826385498
-0.00014631450176239014
-0.0001439899206161499
-0.00014194846153259277
-0.000140264630317688
-0.00013893842697143555
-0.00013816356658935547
-0.00013807415962219238
-0.00013850629329681396
-0.00013968348503112793
-0.00014144182205200195
-0.0001437067985534668
-0.0001464635133743286
-0.0001497119665145874
-0.0001533031463623047
-0.00015710294246673584
-0.000161096453666687
-0.00016511976718902588
-0.0001691281795501709
-0.0001729726791381836
-0.0001764744520187378
-0.00017964839935302734
-0.00018227100372314453
3.24249267578125e-05
3.02046537399292e-05
2.874433994293213e-05
2.79843807220459e-05
2.7686357498168945e-05
2.7954578399658203e-05
2.849102020263672e-05
2.9280781745910645e-05
3.0234456062316895e-05
3.1128525733947754e-05
3.191828727722168e-05
3.2395124435424805e-05
3.2573938369750977e-05
3.221631050109863e-05
3.1366944313049316e-05
2.9802322387695312e-05
2.7611851692199707e-05
2.4765729904174805e-05
2.130866050720215e-05
1.728534698486328e-05
1.284480094909668e-05
8.016824722290039e-06
3.039836883544922e-06
-1.9818544387817383e-06
-6.9141387939453125e-06
-1.1578202247619629e-05
-1.583993434906006e-05
-1.971423625946045e-05
-2.3052096366882324e-05
-2.594292163848877e-05
-2.828240394592285e-05
-3.0249357223510742e-05
-3.187358379364014e-05
-3.3214688301086426e-05
-3.440678119659424e-05
-3.555417060852051e-05
-3.6835670471191406e-05
-3.828108310699463e-05
-4.000961780548096e-05
-4.194676876068115e-05
-4.4286251068115234e-05
-4.696846008300781e-05
-4.99039888381958e-05
-5.3241848945617676e-05
-5.678832530975342e-05
-6.051361560821533e-05
-6.435811519622803e-05
-6.823241710662842e-05
-7.200241088867188e-05
-7.571280002593994e-05
-7.921457290649414e-05
-8.259713649749756e-05
-8.581578731536865e-05
-8.895993232727051e-05
-9.202957153320312e-05
-9.517371654510498e-05
-9.840726852416992e-05
-0.00010184943675994873
-0.0001055598258972168
-0.0001096576452255249
-0.00011414289474487305
-0.00011892616748809814
-0.00012406706809997559
-0.00012947618961334229
-0.00013491511344909668
-0.00014038383960723877
-0.00014556944370269775
-0.000150337815284729
-0.0001545250415802002
-0.000157967209815979
-0.00016054511070251465
-0.00016222894191741943
-0.00016288459300994873
-0.0001626908779144287
-0.00016163289546966553
-0.0001599341630935669
-0.00015760958194732666
-0.00015503168106079102
-0.00015212595462799072
-0.00014932453632354736
-0.00014668703079223633
-0.0001443028450012207
-0.0001424252986907959
-0.00014102458953857422
-0.0001402050256729126
-0.00014005601406097412
-0.00014053285121917725
-0.00014162063598632812
-0.0001433640718460083
-0.00014559924602508545
-0.00014835596084594727
-0.0001515597105026245
-0.00015501677989959717
-0.00015875697135925293
-0.00016260147094726562
-0.00016649067401885986
-0.00017024576663970947
-0.00017377734184265137
-0.00017702579498291016
-0.00017978250980377197
3.653764724731445e-05
3.4749507904052734e-05
3.388524055480957e-05
3.355741500854492e-05
3.382563591003418e-05
3.458559513092041e-05
3.567337989807129e-05
3.695487976074219e-05
3.8295984268188477e-05
3.965198993682861e-05
4.079937934875488e-05
4.1678547859191895e-05
4.194676876068115e-05
4.175305366516113e-05
4.087388515472412e-05
3.921985626220703e-05
3.680586814880371e-05
3.3602118492126465e-05
2.968311309814453e-05
2.504885196685791e-05
1.990795135498047e-05
1.4409422874450684e-05
8.672475814819336e-06
2.8759241104125977e-06
-2.726912498474121e-06
-8.046627044677734e-06
-1.2949109077453613e-05
-1.7240643501281738e-05
-2.0906329154968262e-05
-2.390146255493164e-05
-2.633035182952881e-05
-2.8148293495178223e-05
-2.9519200325012207e-05
-3.0547380447387695e-05
-3.135204315185547e-05
-3.197789192199707e-05
-3.266334533691406e-05
-3.364682197570801e-05
-3.4809112548828125e-05
-3.641843795776367e-05
-3.8504600524902344e-05
-4.112720489501953e-05
-4.430115222930908e-05
-4.805624485015869e-05
-5.2303075790405273e-05
-5.696713924407959e-05
-6.19739294052124e-05
-6.720423698425293e-05
-7.256865501403809e-05
-7.787346839904785e-05
-8.319318294525146e-05
-8.831918239593506e-05
-9.322166442871094e-05
-9.801983833312988e-05
-0.00010257959365844727
-0.00010702013969421387
-0.00011141598224639893
-0.00011573731899261475
-0.0001201629638671875
-0.00012473762035369873
-0.00012934207916259766
-0.00013409554958343506
-0.0001389235258102417
-0.00014387071132659912
-0.00014872848987579346
-0.00015348196029663086
-0.00015789270401000977
-0.00016193091869354248
-0.0001653730869293213
-0.0001680999994277954
-0.0001700669527053833
-0.0001710951328277588
-0.00017130374908447266
-0.00017064809799194336
-0.00016917288303375244
-0.00016701221466064453
-0.00016430020332336426
-0.0001612454652786255
-0.0001579970121383667
-0.00015468895435333252
-0.00015151500701904297
-0.00014859437942504883
-0.00014609098434448242
-0.00014415383338928223
-0.000142708420753479
-0.00014191865921020508
-0.0001417100429534912
-0.00014224648475646973
-0.0001433342695236206
-0.00014504790306091309
-0.00014731287956237793
-0.00015000998973846436
-0.00015310943126678467
-0.00015661120414733887
-0.00016026198863983154
-0.00016394257545471191
-0.00016763806343078613
-0.00017113983631134033
-0.00017438828945159912
-0.00017723441123962402
4.081428050994873e-05
3.953278064727783e-05
3.902614116668701e-05
3.91155481338501e-05
3.986060619354248e-05
4.10228967666626e-05
4.2572617530822754e-05
4.4286251068115234e-05
4.6059489250183105e-05
4.7773122787475586e-05
4.9233436584472656e-05
5.0321221351623535e-05
5.085766315460205e-05
5.066394805908203e-05
4.976987838745117e-05
4.79966402053833e-05
4.525482654571533e-05
4.157423973083496e-05
3.713369369506836e-05
3.1813979148864746e-05
2.594292163848877e-05
1.9624829292297363e-05
1.3068318367004395e-05
6.496906280517578e-06
1.6391277313232422e-07
-5.841255187988281e-06
-1.1160969734191895e-05
-1.5780329704284668e-05
-1.965463161468506e-05
-2.2605061531066895e-05
-2.4840235710144043e-05
-2.6166439056396484e-05
-2.689659595489502e-05
-2.707540988922119e-05
-2.6777386665344238e-05
-2.633035182952881e-05
-2.5764107704162598e-05
-2.537667751312256e-05
-2.5391578674316406e-05
-2.588331699371338e-05
-2.7105212211608887e-05
-2.919137477874756e-05
-3.217160701751709e-05
-3.610551357269287e-05
-4.1037797927856445e-05
-4.6819448471069336e-05
-5.3316354751586914e-05
-6.045401096343994e-05
-6.791949272155762e-05
-7.559359073638916e-05
-8.322298526763916e-05
-9.077787399291992e-05
-9.803473949432373e-05
-0.00010497868061065674
-0.0001115947961807251
-0.00011779367923736572
-0.0001237243413925171
-0.00012937188148498535
-0.0001347362995147705
-0.0001398921012878418
-0.00014483928680419922
-0.00014963746070861816
-0.00015428662300109863
-0.00015874207019805908
-0.00016294419765472412
-0.0001669079065322876
-0.00017049908638000488
-0.00017361342906951904
-0.0001761913299560547
-0.00017811357975006104
-0.0001793205738067627
-0.00017981231212615967
-0.00017939507961273193
-0.00017823278903961182
-0.00017631053924560547
-0.0001738220453262329
-0.00017076730728149414
-0.00016732513904571533
-0.00016373395919799805
-0.00015999376773834229
-0.00015638768672943115
-0.00015304982662200928
-0.00014998018741607666
-0.0001474618911743164
-0.00014543533325195312
-0.0001440495252609253
-0.0001433044672012329
-0.00014306604862213135
-0.0001436471939086914
-0.00014483928680419922
-0.0001465529203414917
-0.00014884769916534424
-0.00015160441398620605
-0.00015470385551452637
-0.00015808641910552979
-0.00016158819198608398
-0.00016520917415618896
-0.00016866624355316162
-0.00017192959785461426
-0.00017477571964263916
4.51505184173584e-05
4.4211745262145996e-05
4.3973326683044434e-05
4.450976848602295e-05
4.5627355575561523e-05
4.717707633972168e-05
4.900991916656494e-05
5.117058753967285e-05
5.328655242919922e-05
5.5342912673950195e-05
5.7071447372436523e-05
5.829334259033203e-05
5.891919136047363e-05
5.8785080909729004e-05
5.771219730377197e-05
5.5670738220214844e-05
5.2541494369506836e-05
4.838407039642334e-05
4.3258070945739746e-05
3.731250762939453e-05
3.063678741455078e-05
2.3439526557922363e-05
1.6182661056518555e-05
8.83638858795166e-06
1.8328428268432617e-06
-4.5746564865112305e-06
-1.023709774017334e-05
-1.4916062355041504e-05
-1.8581748008728027e-05
-2.1055340766906738e-05
-2.2336840629577637e-05
-2.2545456886291504e-05
-2.1666288375854492e-05
-1.9937753677368164e-05
-1.741945743560791e-05
-1.4379620552062988e-05
-1.1071562767028809e-05
-7.897615432739258e-06
-5.0514936447143555e-06
-2.950429916381836e-06
-1.952052116394043e-06
-2.3096799850463867e-06
-4.231929779052734e-06
-7.987022399902344e-06
-1.3440847396850586e-05
-2.0623207092285156e-05
-2.9280781745910645e-05
-3.9249658584594727e-05
-4.9933791160583496e-05
-6.127357482910156e-05
-7.280707359313965e-05
-8.416175842285156e-05
-9.514391422271729e-05
-0.00010569393634796143
-0.00011548399925231934
-0.0001246631145477295
-0.00013302266597747803
-0.00014075636863708496
-0.00014775991439819336
-0.00015416741371154785
-0.0001599043607711792
-0.00016507506370544434
-0.00016966462135314941
-0.00017380714416503906
-0.0001774132251739502
-0.00018055737018585205
-0.00018326938152313232
-0.00018537044525146484
-0.00018705427646636963
-0.00018808245658874512
-0.0001884549856185913
-0.0001882016658782959
-0.00018715858459472656
-0.00018553435802459717
-0.00018319487571716309
-0.00018024444580078125
-0.00017696619033813477
-0.00017318129539489746
-0.00016926229000091553
-0.0001652240753173828
-0.0001612454652786255
-0.00015752017498016357
-0.00015401840209960938
-0.0001509934663772583
-0.0001484602689743042
-0.00014653801918029785
-0.00014516711235046387
-0.00014442205429077148
-0.00014442205429077148
-0.0001450181007385254
-0.0001462697982788086
-0.00014801323413848877
-0.0001503676176071167
-0.0001531839370727539
-0.00015620887279510498
-0.0001595616340637207
-0.00016294419765472412
-0.00016632676124572754
-0.00016951560974121094
-0.00017251074314117432
4.957616329193115e-05
4.877150058746338e-05
4.887580871582031e-05
4.963576793670654e-05
5.106627941131592e-05
5.283951759338379e-05
5.507469177246094e-05
5.7369470596313477e-05
5.97536563873291e-05
6.198883056640625e-05
6.389617919921875e-05
6.523728370666504e-05
6.593763828277588e-05
6.566941738128662e-05
6.438791751861572e-05
6.194412708282471e-05
5.838274955749512e-05
5.370378494262695e-05
4.7907233238220215e-05
4.1112303733825684e-05
3.369152545928955e-05
2.5764107704162598e-05
1.7687678337097168e-05
9.879469871520996e-06
2.518296241760254e-06
-4.038214683532715e-06
-9.47713851928711e-06
-1.3619661331176758e-05
-1.621246337890625e-05
-1.722574234008789e-05
-1.6495585441589355e-05
-1.405179500579834e-05
-9.834766387939453e-06
-4.127621650695801e-06
3.0249357223510742e-06
1.119077205657959e-05
2.0131468772888184e-05
2.9221177101135254e-05
3.796815872192383e-05
4.570186138153076e-05
5.170702934265137e-05
5.544722080230713e-05
5.6356191635131836e-05
5.409121513366699e-05
4.838407039642334e-05
3.93986701965332e-05
2.746284008026123e-05
1.2978911399841309e-05
-3.4123659133911133e-06
-2.104043960571289e-05
-3.929436206817627e-05
-5.747377872467041e-05
-7.514655590057373e-05
-9.196996688842773e-05
-0.00010752677917480469
-0.00012186169624328613
-0.0001348257064819336
-0.00014637410640716553
-0.00015650689601898193
-0.0001652538776397705
-0.00017276406288146973
-0.00017906725406646729
-0.00018426775932312012
-0.00018841028213500977
-0.0001917332410812378
-0.00019419193267822266
-0.00019600987434387207
-0.00019718706607818604
-0.0001977980136871338
-0.00019784271717071533
-0.0001973360776901245
-0.00019632279872894287
-0.00019465386867523193
-0.00019240379333496094
-0.00018964707851409912
-0.00018644332885742188
-0.0001827627420425415
-0.00017876923084259033
-0.00017458200454711914
-0.00017027556896209717
-0.00016607344150543213
-0.00016190111637115479
-0.00015813112258911133
-0.00015465915203094482
-0.00015169382095336914
-0.00014925003051757812
-0.00014735758304595947
-0.0001461505889892578
-0.0001455545425415039
-0.0001455843448638916
-0.00014637410640716553
-0.00014765560626983643
-0.00014959275722503662
-0.00015194714069366455
-0.00015473365783691406
-0.00015784800052642822
-0.00016103684902191162
-0.0001643449068069458
-0.0001674741506576538
-0.0001703798770904541
5.383789539337158e-05
5.3256750106811523e-05
5.348026752471924e-05
5.4389238357543945e-05
5.59389591217041e-05
5.798041820526123e-05
6.0304999351501465e-05
6.289780139923096e-05
6.538629531860352e-05
6.774067878723145e-05
6.966292858123779e-05
7.094442844390869e-05
7.149577140808105e-05
7.106363773345947e-05
6.946921348571777e-05
6.663799285888672e-05
6.249547004699707e-05
5.710124969482422e-05
5.061924457550049e-05
4.315376281738281e-05
3.5002827644348145e-05
2.6524066925048828e-05
1.8104910850524902e-05
1.0058283805847168e-05
2.86102294921875e-06
-3.1441450119018555e-06
-7.525086402893066e-06
-1.0013580322265625e-05
-1.0222196578979492e-05
-7.987022399902344e-06
-3.129243850708008e-06
4.559755325317383e-06
1.5184283256530762e-05
2.8505921363830566e-05
4.4465065002441406e-05
6.273388862609863e-05
8.258223533630371e-05
0.00010323524475097656
0.00012378394603729248
0.00014285743236541748
0.0001592487096786499
0.00017167627811431885
0.0001790374517440796
0.0001805424690246582
0.00017569959163665771
0.00016447901725769043
0.00014729797840118408
0.00012502074241638184
9.866058826446533e-05
6.96331262588501e-05
3.91155481338501e-05
8.299946784973145e-06
-2.162158489227295e-05
-5.011260509490967e-05
-7.648766040802002e-05
-0.00010047852993011475
-0.0001217871904373169
-0.0001405179500579834
-0.00015653669834136963
-0.00016999244689941406
-0.00018106400966644287