# vtk DataFile Version 3.0
2D PINN Solution
ASCII
DATASET STRUCTURED_GRID
DIMENSIONS 100 100 1
POINTS 10000 float
-1.0 -1.0 0.0
-0.9797979797979798 -1.0 0.0
-0.9595959595959596 -1.0 0.0
-0.9393939393939394 -1.0 0.0
-0.9191919191919192 -1.0 0.0
-0.898989898989899 -1.0 0.0
-0.8787878787878788 -1.0 0.0
-0.8585858585858586 -1.0 0.0
-0.8383838383838383 -1.0 0.0
-0.8181818181818181 -1.0 0.0
-0.797979797979798 -1.0 0.0
-0.7777777777777778 -1.0 0.0
-0.7575757575757576 -1.0 0.0
-0.7373737373737373 -1.0 0.0
-0.7171717171717171 -1.0 0.0
-0.696969696969697 -1.0 0.0
-0.6767676767676767 -1.0 0.0
-0.6565656565656566 -1.0 0.0
-0.6363636363636364 -1.0 0.0
-0.6161616161616161 -1.0 0.0
-0.5959595959595959 -1.0 0.0
-0.5757575757575757 -1.0 0.0
-0.5555555555555556 -1.0 0.0
-0.5353535353535352 -1.0 0.0
-0.5151515151515151 -1.0 0.0
-0.4949494949494949 -1.0 0.0
-0.4747474747474747 -1.0 0.0
-0.4545454545454545 -1.0 0.0
-0.43434343434343425 -1.0 0.0
-0.41414141414141414 -1.0 0.0
-0.3939393939393939 -1.0 0.0
-0.3737373737373737 -1.0 0.0
-0.3535353535353535 -1.0 0.0
-0.33333333333333326 -1.0 0.0
-0.31313131313131304 -1.0 0.0
-0.2929292929292928 -1.0 0.0
-0.2727272727272727 -1.0 0.0
-0.2525252525252525 -1.0 0.0
-0.23232323232323226 -1.0 0.0
-0.21212121212121204 -1.0 0.0
-0.19191919191919182 -1.0 0.0
-0.1717171717171716 -1.0 0.0
-0.1515151515151515 -1.0 0.0
-0.13131313131313127 -1.0 0.0
-0.11111111111111105 -1.0 0.0
-0.09090909090909083 -1.0 0.0
-0.07070707070707061 -1.0 0.0
-0.050505050505050386 -1.0 0.0
-0.030303030303030276 -1.0 0.0
-0.010101010101010055 -1.0 0.0
0.010101010101010166 -1.0 0.0
0.030303030303030498 -1.0 0.0
0.05050505050505061 -1.0 0.0
0.07070707070707072 -1.0 0.0
0.09090909090909105 -1.0 0.0
0.11111111111111116 -1.0 0.0
0.1313131313131315 -1.0 0.0
0.1515151515151516 -1.0 0.0
0.1717171717171717 -1.0 0.0
0.19191919191919204 -1.0 0.0
0.21212121212121215 -1.0 0.0
0.2323232323232325 -1.0 0.0
0.2525252525252526 -1.0 0.0
0.27272727272727293 -1.0 0.0
0.29292929292929304 -1.0 0.0
0.31313131313131315 -1.0 0.0
0.3333333333333335 -1.0 0.0
0.3535353535353536 -1.0 0.0
0.3737373737373739 -1.0 0.0
0.39393939393939403 -1.0 0.0
0.41414141414141437 -1.0 0.0
0.4343434343434345 -1.0 0.0
0.4545454545454546 -1.0 0.0
0.4747474747474749 -1.0 0.0
0.49494949494949503 -1.0 0.0
0.5151515151515154 -1.0 0.0
0.5353535353535355 -1.0 0.0
0.5555555555555556 -1.0 0.0
0.5757575757575759 -1.0 0.0
0.595959595959596 -1.0 0.0
0.6161616161616164 -1.0 0.0
0.6363636363636365 -1.0 0.0
0.6565656565656568 -1.0 0.0
0.6767676767676769 -1.0 0.0
0.696969696969697 -1.0 0.0
0.7171717171717173 -1.0 0.0
0.7373737373737375 -1.0 0.0
0.7575757575757578 -1.0 0.0
0.7777777777777779 -1.0 0.0
0.7979797979797982 -1.0 0.0
0.8181818181818183 -1.0 0.0
0.8383838383838385 -1.0 0.0
0.8585858585858588 -1.0 0.0
0.8787878787878789 -1.0 0.0
0.8989898989898992 -1.0 0.0
0.9191919191919193 -1.0 0.0
0.9393939393939394 -1.0 0.0
0.9595959595959598 -1.0 0.0
0.9797979797979799 -1.0 0.0
1.0 -1.0 0.0
-1.0 -0.9797979797979798 0.0
-0.9797979797979798 -0.9797979797979798 0.0
-0.9595959595959596 -0.9797979797979798 0.0
-0.9393939393939394 -0.9797979797979798 0.0
-0.9191919191919192 -0.9797979797979798 0.0
-0.898989898989899 -0.9797979797979798 0.0
-0.8787878787878788 -0.9797979797979798 0.0
-0.8585858585858586 -0.9797979797979798 0.0
-0.8383838383838383 -0.9797979797979798 0.0
-0.8181818181818181 -0.9797979797979798 0.0
-0.797979797979798 -0.9797979797979798 0.0
-0.7777777777777778 -0.9797979797979798 0.0
-0.7575757575757576 -0.9797979797979798 0.0
-0.7373737373737373 -0.9797979797979798 0.0
-0.7171717171717171 -0.9797979797979798 0.0
-0.696969696969697 -0.9797979797979798 0.0
-0.6767676767676767 -0.9797979797979798 0.0
-0.6565656565656566 -0.9797979797979798 0.0
-0.6363636363636364 -0.9797979797979798 0.0
-0.6161616161616161 -0.9797979797979798 0.0
-0.5959595959595959 -0.9797979797979798 0.0
-0.5757575757575757 -0.9797979797979798 0.0
-0.5555555555555556 -0.9797979797979798 0.0
-0.5353535353535352 -0.9797979797979798 0.0
-0.5151515151515151 -0.9797979797979798 0.0
-0.4949494949494949 -0.9797979797979798 0.0
-0.4747474747474747 -0.9797979797979798 0.0
-0.4545454545454545 -0.9797979797979798 0.0
-0.43434343434343425 -0.9797979797979798 0.0
-0.41414141414141414 -0.9797979797979798 0.0
-0.3939393939393939 -0.9797979797979798 0.0
-0.3737373737373737 -0.9797979797979798 0.0
-0.3535353535353535 -0.9797979797979798 0.0
-0.33333333333333326 -0.9797979797979798 0.0
-0.31313131313131304 -0.9797979797979798 0.0
-0.2929292929292928 -0.9797979797979798 0.0
-0.2727272727272727 -0.9797979797979798 0.0
-0.2525252525252525 -0.9797979797979798 0.0
-0.23232323232323226 -0.9797979797979798 0.0
-0.21212121212121204 -0.9797979797979798 0.0
-0.19191919191919182 -0.9797979797979798 0.0
-0.1717171717171716 -0.9797979797979798 0.0
-0.1515151515151515 -0.9797979797979798 0.0
-0.13131313131313127 -0.9797979797979798 0.0
-0.11111111111111105 -0.9797979797979798 0.0
-0.09090909090909083 -0.9797979797979798 0.0
-0.07070707070707061 -0.9797979797979798 0.0
-0.050505050505050386 -0.9797979797979798 0.0
-0.030303030303030276 -0.9797979797979798 0.0
-0.010101010101010055 -0.9797979797979798 0.0
0.010101010101010166 -0.9797979797979798 0.0
0.030303030303030498 -0.9797979797979798 0.0
0.05050505050505061 -0.9797979797979798 0.0
0.07070707070707072 -0.9797979797979798 0.0
0.09090909090909105 -0.9797979797979798 0.0
0.11111111111111116 -0.9797979797979798 0.0
0.1313131313131315 -0.9797979797979798 0.0
0.1515151515151516 -0.9797979797979798 0.0
0.1717171717171717 -0.9797979797979798 0.0
0.19191919191919204 -0.9797979797979798 0.0
0.21212121212121215 -0.9797979797979798 0.0
0.2323232323232325 -0.9797979797979798 0.0
0.2525252525252526 -0.9797979797979798 0.0
0.27272727272727293 -0.9797979797979798 0.0
0.29292929292929304 -0.9797979797979798 0.0
0.31313131313131315 -0.9797979797979798 0.0
0.3333333333333335 -0.9797979797979798 0.0
0.3535353535353536 -0.9797979797979798 0.0
0.3737373737373739 -0.9797979797979798 0.0
0.39393939393939403 -0.9797979797979798 0.0
0.41414141414141437 -0.9797979797979798 0.0
0.4343434343434345 -0.9797979797979798 0.0
0.4545454545454546 -0.9797979797979798 0.0
0.4747474747474749 -0.9797979797979798 0.0
0.49494949494949503 -0.9797979797979798 0.0
0.5151515151515154 -0.9797979797979798 0.0
0.5353535353535355 -0.9797979797979798 0.0
0.5555555555555556 -0.9797979797979798 0.0
0.5757575757575759 -0.9797979797979798 0.0
0.595959595959596 -0.9797979797979798 0.0
0.6161616161616164 -0.9797979797979798 0.0
0.6363636363636365 -0.9797979797979798 0.0
0.6565656565656568 -0.9797979797979798 0.0
0.6767676767676769 -0.9797979797979798 0.0
0.696969696969697 -0.9797979797979798 0.0
0.7171717171717173 -0.9797979797979798 0.0
0.7373737373737375 -0.9797979797979798 0.0
0.7575757575757578 -0.9797979797979798 0.0
0.7777777777777779 -0.9797979797979798 0.0
0.7979797979797982 -0.9797979797979798 0.0
0.8181818181818183 -0.9797979797979798 0.0
0.8383838383838385 -0.9797979797979798 0.0
0.8585858585858588 -0.9797979797979798 0.0
0.8787878787878789 -0.9797979797979798 0.0
0.8989898989898992 -0.9797979797979798 0.0
0.9191919191919193 -0.9797979797979798 0.0
0.9393939393939394 -0.9797979797979798 0.0
0.9595959595959598 -0.9797979797979798 0.0
0.9797979797979799 -0.9797979797979798 0.0
1.0 -0.9797979797979798 0.0
-1.0 -0.9595959595959596 0.0
-0.9797979797979798 -0.9595959595959596 0.0
-0.9595959595959596 -0.9595959595959596 0.0
-0.9393939393939394 -0.9595959595959596 0.0
-0.9191919191919192 -0.9595959595959596 0.0
-0.898989898989899 -0.9595959595959596 0.0
-0.8787878787878788 -0.9595959595959596 0.0
-0.8585858585858586 -0.9595959595959596 0.0
-0.8383838383838383 -0.9595959595959596 0.0
-0.8181818181818181 -0.9595959595959596 0.0
-0.797979797979798 -0.9595959595959596 0.0
-0.7777777777777778 -0.9595959595959596 0.0
-0.7575757575757576 -0.9595959595959596 0.0
-0.7373737373737373 -0.9595959595959596 0.0
-0.7171717171717171 -0.9595959595959596 0.0
-0.696969696969697 -0.9595959595959596 0.0
-0.6767676767676767 -0.9595959595959596 0.0
-0.6565656565656566 -0.9595959595959596 0.0
-0.6363636363636364 -0.9595959595959596 0.0
-0.6161616161616161 -0.9595959595959596 0.0
-0.5959595959595959 -0.9595959595959596 0.0
-0.5757575757575757 -0.9595959595959596 0.0
-0.5555555555555556 -0.9595959595959596 0.0
-0.5353535353535352 -0.9595959595959596 0.0
-0.5151515151515151 -0.9595959595959596 0.0
-0.4949494949494949 -0.9595959595959596 0.0
-0.4747474747474747 -0.9595959595959596 0.0
-0.4545454545454545 -0.9595959595959596 0.0
-0.43434343434343425 -0.9595959595959596 0.0
-0.41414141414141414 -0.9595959595959596 0.0
-0.3939393939393939 -0.9595959595959596 0.0
-0.3737373737373737 -0.9595959595959596 0.0
-0.3535353535353535 -0.9595959595959596 0.0
-0.33333333333333326 -0.9595959595959596 0.0
-0.31313131313131304 -0.9595959595959596 0.0
-0.2929292929292928 -0.9595959595959596 0.0
-0.2727272727272727 -0.9595959595959596 0.0
-0.2525252525252525 -0.9595959595959596 0.0
-0.23232323232323226 -0.9595959595959596 0.0
-0.21212121212121204 -0.9595959595959596 0.0
-0.19191919191919182 -0.9595959595959596 0.0
-0.1717171717171716 -0.9595959595959596 0.0
-0.1515151515151515 -0.9595959595959596 0.0
-0.13131313131313127 -0.9595959595959596 0.0
-0.11111111111111105 -0.9595959595959596 0.0
-0.09090909090909083 -0.9595959595959596 0.0
-0.07070707070707061 -0.9595959595959596 0.0
-0.050505050505050386 -0.9595959595959596 0.0
-0.030303030303030276 -0.9595959595959596 0.0
-0.010101010101010055 -0.9595959595959596 0.0
0.010101010101010166 -0.9595959595959596 0.0
0.030303030303030498 -0.9595959595959596 0.0
0.05050505050505061 -0.9595959595959596 0.0
0.07070707070707072 -0.9595959595959596 0.0
0.09090909090909105 -0.9595959595959596 0.0
0.11111111111111116 -0.9595959595959596 0.0
0.1313131313131315 -0.9595959595959596 0.0
0.1515151515151516 -0.9595959595959596 0.0
0.1717171717171717 -0.9595959595959596 0.0
0.19191919191919204 -0.9595959595959596 0.0
0.21212121212121215 -0.9595959595959596 0.0
[...]
POINT_DATA 10000
SCALARS u float 1
LOOKUP_TABLE default
2.5898218154907227e-05
2.230703830718994e-05
1.9550323486328125e-05
1.7404556274414062e-05
1.5974044799804688e-05
1.506507396697998e-05
1.4722347259521484e-05
1.4722347259521484e-05
1.5094876289367676e-05
1.5690922737121582e-05
1.6361474990844727e-05
1.7061829566955566e-05
1.7702579498291016e-05
1.8209218978881836e-05
1.8388032913208008e-05
1.825392246246338e-05
1.767277717590332e-05
1.6689300537109375e-05
1.52587890625e-05
1.3232231140136719e-05
1.0728836059570312e-05
7.852911949157715e-06
4.634261131286621e-06
1.0579824447631836e-06
-2.652406692504883e-06
-6.496906280517578e-06
-1.0281801223754883e-05
-1.3962388038635254e-05
-1.753866672515869e-05
-2.0802021026611328e-05
-2.3871660232543945e-05
-2.656877040863037e-05
-2.8952956199645996e-05
-3.1188130378723145e-05
-3.312528133392334e-05
-3.4928321838378906e-05
-3.668665885925293e-05
-3.8430094718933105e-05
-4.0158629417419434e-05
-4.197657108306885e-05
-4.394352436065674e-05
-4.5999884605407715e-05
-4.819035530090332e-05
-5.030632019042969e-05
-5.24669885635376e-05
-5.441904067993164e-05
-5.622208118438721e-05
-5.7563185691833496e-05
-5.863606929779053e-05
-5.9098005294799805e-05
-5.911290645599365e-05
-5.8591365814208984e-05
-5.759298801422119e-05
-5.620718002319336e-05
-5.462765693664551e-05
-5.301833152770996e-05
-5.14984130859375e-05
-5.047023296356201e-05
-4.999339580535889e-05
-5.0380825996398926e-05
-5.170702934265137e-05
-5.4135918617248535e-05
-5.765259265899658e-05
-6.23166561126709e-05
-6.794929504394531e-05
-7.43865966796875e-05
-8.140504360198975e-05
-8.872151374816895e-05
-9.59634780883789e-05
-0.0001030266284942627
-0.00010947883129119873
-0.00011524558067321777
-0.00012014806270599365
-0.00012408196926116943
-0.00012709200382232666
-0.00012919306755065918
-0.00013053417205810547
-0.000131264328956604
-0.0001315772533416748
-0.0001316368579864502
-0.00013165175914764404
-0.00013184547424316406
-0.00013224780559539795
-0.0001332014799118042
-0.0001344829797744751
-0.00013634562492370605
-0.00013872981071472168
-0.00014160573482513428
-0.00014500319957733154
-0.0001487433910369873
-0.0001528710126876831
-0.00015720725059509277
-0.0001617521047592163
-0.000166282057762146
-0.00017082691192626953
-0.00017520785331726074
-0.0001792609691619873
-0.00018310546875
-0.00018645823001861572
-0.00018937885761260986
2.9012560844421387e-05
2.5972723960876465e-05
2.3797154426574707e-05
2.22623348236084e-05
2.1442770957946777e-05
2.1159648895263672e-05
2.142786979675293e-05
2.205371856689453e-05
2.2858381271362305e-05
2.396106719970703e-05
2.5153160095214844e-05
2.6226043701171875e-05
2.7239322662353516e-05
2.7924776077270508e-05
2.8267502784729004e-05
2.8207898139953613e-05
2.7552247047424316e-05
2.63899564743042e-05
2.4691224098205566e-05
2.22623348236084e-05
1.932680606842041e-05
1.589953899383545e-05
1.2055039405822754e-05
7.912516593933105e-06
3.5762786865234375e-06
-8.642673492431641e-07
-5.230307579040527e-06
-9.462237358093262e-06
-1.3381242752075195e-05
-1.6957521438598633e-05
-2.0131468772888184e-05
-2.2962689399719238e-05
-2.536177635192871e-05
-2.7388334274291992e-05
-2.9146671295166016e-05
-3.071129322052002e-05
-3.21120023727417e-05
-3.3482909202575684e-05
-3.491342067718506e-05
-3.653764724731445e-05
-3.8236379623413086e-05
-4.024803638458252e-05
-4.239380359649658e-05
-4.4792890548706055e-05
-4.731118679046631e-05
-4.979968070983887e-05
-5.2288174629211426e-05
-5.459785461425781e-05
-5.6684017181396484e-05
-5.838274955749512e-05
-5.969405174255371e-05
-6.051361560821533e-05
-6.0886144638061523e-05
-6.090104579925537e-05
-6.058812141418457e-05
-6.015598773956299e-05
-5.964934825897217e-05
-5.9410929679870605e-05
-5.957484245300293e-05
-6.029009819030762e-05
-6.183981895446777e-05
-6.431341171264648e-05
-6.771087646484375e-05
-7.212162017822266e-05
-7.732212543487549e-05
-8.337199687957764e-05
-8.988380432128906e-05
-9.681284427642822e-05
-0.00010369718074798584
-0.00011032819747924805
-0.00011651217937469482
-0.00012196600437164307
-0.0001266002655029297
-0.00013022124767303467
-0.0001329183578491211
-0.0001347064971923828
-0.0001356750726699829
-0.00013597309589385986
-0.00013580918312072754
-0.00013540685176849365
-0.00013488531112670898
-0.00013455748558044434
-0.00013436377048492432
-0.00013466179370880127
-0.00013534724712371826
-0.00013659894466400146
-0.00013846158981323242
-0.0001408606767654419
-0.00014369189739227295
-0.00014707446098327637
-0.00015084445476531982
-0.000154837965965271
-0.00015909969806671143
-0.00016348063945770264
-0.0001678466796875
-0.00017216801643371582
-0.00017622113227844238
-0.00018006563186645508
-0.00018349289894104004
-0.00018647313117980957
3.249943256378174e-05
3.0040740966796875e-05
2.8386712074279785e-05
2.7477741241455078e-05
2.728402614593506e-05
2.7567148208618164e-05
2.8312206268310547e-05
2.9489398002624512e-05
3.090500831604004e-05
3.2514333724975586e-05
3.4168362617492676e-05
3.565847873687744e-05
3.695487976074219e-05
3.796815872192383e-05
3.84598970413208e-05
3.8370490074157715e-05
3.774464130401611e-05
3.637373447418213e-05
3.4332275390625e-05
3.1560659408569336e-05
2.810359001159668e-05
2.4110078811645508e-05
1.9550323486328125e-05
1.4722347259521484e-05
9.670853614807129e-06
4.4852495193481445e-06
-5.364418029785156e-07
-5.304813385009766e-06
-9.715557098388672e-06
-1.3694167137145996e-05
-1.710653305053711e-05
-2.0071864128112793e-05
-2.2485852241516113e-05
-2.4393200874328613e-05
-2.5987625122070312e-05
-2.714991569519043e-05
-2.8207898139953613e-05
-2.9206275939941406e-05
-3.018975257873535e-05
-3.1381845474243164e-05
-3.2782554626464844e-05
-3.451108932495117e-05
-3.6597251892089844e-05
-3.896653652191162e-05
-4.166364669799805e-05
-4.464387893676758e-05
-4.774332046508789e-05
-5.08427619934082e-05
-5.3942203521728516e-05
-5.6803226470947266e-05
-5.939602851867676e-05
-6.158649921417236e-05
-6.347894668579102e-05
-6.4849853515625e-05
-6.595253944396973e-05
-6.67572021484375e-05
-6.745755672454834e-05
-6.818771362304688e-05
-6.909668445587158e-05
-7.039308547973633e-05
-7.234513759613037e-05
-7.490813732147217e-05
-7.824599742889404e-05
-8.241832256317139e-05
-8.73953104019165e-05
-9.298324584960938e-05
-9.909272193908691e-05
-0.00010545551776885986
-0.0001119375228881836
-0.00011821091175079346
-0.0001239180564880371
-0.00012905895709991455
-0.00013335049152374268
-0.00013662874698638916
-0.00013896822929382324
-0.000140458345413208
-0.00014105439186096191
-0.00014100968837738037
-0.00014036893844604492
-0.00013950467109680176
-0.00013847649097442627
-0.00013750791549682617
-0.00013677775859832764
-0.000136449933052063
-0.00013656914234161377
-0.00013720989227294922
-0.00013844668865203857
-0.000140264630317688
-0.0001426488161087036
-0.0001455545425415039
-0.00014881789684295654
-0.00015254318714141846
-0.00015650689601898193
-0.00016060471534729004
-0.00016485154628753662
-0.0001690685749053955
-0.00017313659191131592
-0.00017695128917694092
-0.00018045306205749512
-0.00018352270126342773
3.62396240234375e-05
3.428757190704346e-05
3.312528133392334e-05
3.27378511428833e-05
3.2961368560791016e-05
3.3855438232421875e-05
3.5181641578674316e-05
3.68654727935791e-05
3.8817524909973145e-05
4.088878631591797e-05
4.29302453994751e-05
4.48375940322876e-05
4.647672176361084e-05
4.772841930389404e-05
4.836916923522949e-05
4.838407039642334e-05
4.763901233673096e-05
4.6119093894958496e-05
4.3705105781555176e-05
4.042685031890869e-05
3.647804260253906e-05
3.17692756652832e-05
2.6538968086242676e-05
2.092123031616211e-05
1.5050172805786133e-05
9.164214134216309e-06
3.382563591003418e-06
-2.041459083557129e-06
-6.988644599914551e-06
-1.1369585990905762e-05
-1.5154480934143066e-05
-1.8224120140075684e-05
-2.0623207092285156e-05
-2.238154411315918e-05
-2.3663043975830078e-05
-2.4437904357910156e-05
-2.498924732208252e-05
-2.5391578674316406e-05
-2.580881118774414e-05
-2.6300549507141113e-05
-2.714991569519043e-05
-2.8446316719055176e-05
-3.018975257873535e-05
-3.238022327423096e-05
-3.5181641578674316e-05
-3.84598970413208e-05
-4.209578037261963e-05
-4.60892915725708e-05
-5.023181438446045e-05
-5.435943603515625e-05
-5.842745304107666e-05
-6.221234798431396e-05
-6.569921970367432e-05
-6.873905658721924e-05
-7.140636444091797e-05
-7.370114326477051e-05
-7.575750350952148e-05
-7.75754451751709e-05
-7.94529914855957e-05
-8.155405521392822e-05
-8.392333984375e-05
-8.670985698699951e-05
-9.003281593322754e-05
-9.40561294555664e-05
-9.869039058685303e-05
-0.00010383129119873047
-0.0001093745231628418
-0.00011521577835083008
-0.0001211315393447876
-0.00012680888175964355
-0.00013203918933868408
-0.00013668835163116455
-0.00014053285121917725
-0.00014348328113555908
-0.00014549493789672852
-0.00014659762382507324
-0.00014682114124298096
-0.00014631450176239014
-0.00014528632164001465
-0.0001439303159713745
-0.0001423954963684082
-0.00014090538024902344
-0.000139579176902771
-0.00013862550258636475
-0.00013813376426696777
-0.00013810396194458008
-0.00013872981071472168
-0.00014001131057739258
-0.00014181435108184814
-0.00014418363571166992
-0.00014705955982208252
-0.0001503080129623413
-0.00015401840209960938
-0.00015787780284881592
-0.00016196072101593018
-0.00016602873802185059
-0.0001700073480606079
-0.00017386674880981445
-0.0001773536205291748
-0.00018049776554107666
4.012882709503174e-05
3.8564205169677734e-05
3.790855407714844e-05
3.795325756072998e-05
3.8683414459228516e-05
3.999471664428711e-05
4.175305366516113e-05
4.391372203826904e-05
4.6372413635253906e-05
4.883110523223877e-05
5.128979682922363e-05
5.3569674491882324e-05
5.552172660827637e-05
5.698204040527344e-05
5.774199962615967e-05
5.7756900787353516e-05
5.69075345993042e-05
5.511939525604248e-05
5.2362680435180664e-05
4.857778549194336e-05
4.3958425521850586e-05
3.854930400848389e-05
3.255903720855713e-05
2.606213092803955e-05
1.93864107131958e-05
1.2665987014770508e-05
6.198883056640625e-06
1.1920928955078125e-07
-5.379319190979004e-06
-1.017749309539795e-05
-1.4081597328186035e-05
-1.7240643501281738e-05
-1.940131187438965e-05
-2.0816922187805176e-05
-2.154707908630371e-05
-2.154707908630371e-05
-2.1189451217651367e-05
-2.0489096641540527e-05
-1.9848346710205078e-05
-1.9297003746032715e-05
-1.9043684005737305e-05
-1.932680606842041e-05
-2.0325183868408203e-05
-2.2143125534057617e-05
-2.4765729904174805e-05
-2.828240394592285e-05
-3.2648444175720215e-05
-3.7610530853271484e-05
-4.310905933380127e-05
-4.902482032775879e-05
-5.491077899932861e-05
-6.085634231567383e-05
-6.64740800857544e-05
-7.164478302001953e-05
-7.645785808563232e-05
-8.07046890258789e-05
-8.453428745269775e-05
-8.788704872131348e-05
-9.101629257202148e-05
-9.40561294555664e-05
-9.705126285552979e-05
-0.00010025501251220703
-0.00010369718074798584
-0.00010754168033599854
-0.00011174380779266357
-0.00011636316776275635
-0.00012131035327911377
-0.00012643635272979736
-0.0001315474510192871
-0.00013652443885803223
-0.00014115869998931885
-0.00014513731002807617
-0.00014847517013549805
-0.00015088915824890137
-0.00015249848365783691
-0.00015313923358917236
-0.00015294551849365234
-0.00015205144882202148
-0.00015057623386383057
-0.0001487135887145996
-0.00014668703079223633
-0.0001446753740310669
-0.00014275312423706055
-0.000141143798828125
-0.00014004111289978027
-0.0001394897699356079
-0.00013944506645202637
-0.00014007091522216797
-0.00014129281044006348
-0.00014312565326690674
-0.0001455247402191162
-0.0001483708620071411
-0.0001516491174697876
-0.00015525519847869873
-0.00015908479690551758
-0.00016298890113830566
-0.00016692280769348145
-0.0001706928014755249
-0.00017432868480682373
-0.00017753243446350098
4.404783248901367e-05
4.2811036109924316e-05
4.240870475769043e-05
4.29004430770874e-05
4.4018030166625977e-05
4.565715789794922e-05
4.7847628593444824e-05
5.041062831878662e-05
5.321204662322998e-05
5.607306957244873e-05
5.885958671569824e-05
6.143748760223389e-05
6.362795829772949e-05
6.522238254547119e-05
6.608664989471436e-05
6.608664989471436e-05
6.504356861114502e-05
6.29425048828125e-05
5.97536563873291e-05
5.5477023124694824e-05
5.017220973968506e-05
4.4018030166625977e-05
3.714859485626221e-05
2.987682819366455e-05
2.2411346435546875e-05
1.4930963516235352e-05
7.808208465576172e-06
1.2367963790893555e-06
-4.6193599700927734e-06
-9.521842002868652e-06
-1.33514404296875e-05
-1.607835292816162e-05
-1.7628073692321777e-05
-1.8164515495300293e-05
-1.7583370208740234e-05
-1.6182661056518555e-05
-1.3917684555053711e-05
-1.1295080184936523e-05
-8.448958396911621e-06
-5.617737770080566e-06
-3.2186508178710938e-06
-1.6242265701293945e-06
-9.685754776000977e-07
-1.6242265701293945e-06
-3.7103891372680664e-06
-7.271766662597656e-06
-1.233816146850586e-05
-1.8805265426635742e-05
-2.637505531311035e-05
-3.4809112548828125e-05
-4.374980926513672e-05
-5.291402339935303e-05
-6.194412708282471e-05
-7.048249244689941e-05
-7.840991020202637e-05
-8.560717105865479e-05
-9.205937385559082e-05
-9.773671627044678e-05
-0.00010275840759277344
-0.00010722875595092773
-0.00011134147644042969
-0.00011520087718963623
-0.00011897087097167969
-0.000122755765914917
-0.00012670457363128662
-0.00013075768947601318
-0.00013498961925506592
-0.0001392364501953125
-0.00014352798461914062
-0.0001475811004638672
-0.0001513361930847168
-0.0001545548439025879
-0.00015717744827270508
-0.0001590251922607422
-0.00015997886657714844
-0.00016014277935028076
-0.00015951693058013916
-0.00015816092491149902
-0.00015628337860107422
-0.00015394389629364014
-0.00015138089656829834
-0.0001488029956817627
-0.00014632940292358398
-0.00014416873455047607
-0.00014247000217437744
-0.00014123320579528809
-0.0001405477523803711
-0.00014053285121917725
-0.0001412034034729004
-0.00014244019985198975
-0.00014431774616241455
-0.00014670193195343018
-0.00014957785606384277
-0.00015282630920410156
-0.000156402587890625
-0.00016012787818908691
-0.00016398727893829346
-0.00016771256923675537
-0.00017127394676208496
-0.000174596905708313
4.7832727432250977e-05
4.6879053115844727e-05
4.677474498748779e-05
4.7400593757629395e-05
4.8860907554626465e-05
5.0827860832214355e-05
5.328655242919922e-05
5.614757537841797e-05
5.920231342315674e-05
6.243586540222168e-05
6.549060344696045e-05
6.827712059020996e-05
7.055699825286865e-05
7.224082946777344e-05
7.317960262298584e-05
7.297098636627197e-05
7.176399230957031e-05
6.92903995513916e-05
6.556510925292969e-05
6.0677528381347656e-05
5.474686622619629e-05
4.7832727432250977e-05
4.0203332901000977e-05
3.212690353393555e-05
2.4005770683288574e-05
1.5974044799804688e-05
8.538365364074707e-06
1.7881393432617188e-06
-3.978610038757324e-06
-8.434057235717773e-06
-1.1548399925231934e-05
-1.3113021850585938e-05
-1.3127923011779785e-05
-1.1518597602844238e-05
-8.344650268554688e-06
-3.7848949432373047e-06
1.9073486328125e-06
8.52346420288086e-06
1.5616416931152344e-05
2.2873282432556152e-05
2.962350845336914e-05
3.52710485458374e-05
3.93986701965332e-05
4.139542579650879e-05
4.10228967666626e-05
3.7923455238342285e-05
3.202259540557861e-05
2.3484230041503906e-05
1.2665987014770508e-05
0.0
-1.3977289199829102e-05
-2.8565526008605957e-05
-4.3272972106933594e-05
-5.747377872467041e-05
-7.084012031555176e-05
-8.305907249450684e-05
-9.393692016601562e-05
-0.00010348856449127197
-0.00011172890663146973
-0.0001188516616821289
-0.0001249760389328003
-0.00013019144535064697
-0.00013490021228790283
-0.00013905763626098633
-0.00014297664165496826
-0.00014662742614746094
-0.00015015900135040283
-0.00015360116958618164
-0.00015681982040405273
-0.00015991926193237305
-0.00016264617443084717
-0.00016489624977111816
-0.0001666247844696045
-0.00016766786575317383
-0.00016802549362182617
-0.00016763806343078613
-0.00016643106937408447
-0.00016456842422485352
-0.00016224384307861328
-0.00015942752361297607
-0.00015641748905181885
-0.00015333294868469238
-0.00015038251876831055
-0.00014756619930267334
-0.00014528632164001465
-0.00014343857765197754
-0.0001421421766281128
-0.00014147162437438965
-0.0001414865255355835
-0.00014215707778930664
-0.00014348328113555908
-0.00014539062976837158
-0.0001478642225265503
-0.00015076994895935059
-0.00015400350093841553
-0.00015752017498016357
-0.0001611858606338501
-0.00016485154628753662
-0.00016838312149047852
-0.00017167627811431885
5.14984130859375e-05
5.0693750381469727e-05
5.075335502624512e-05
5.1602721214294434e-05
5.3122639656066895e-05
5.5283308029174805e-05
5.796551704406738e-05
6.0945749282836914e-05
6.41942024230957e-05
6.754696369171143e-05
7.076561450958252e-05
7.368624210357666e-05
7.604062557220459e-05
7.767975330352783e-05
7.842481136322021e-05
7.809698581695557e-05
7.650256156921387e-05
7.359683513641357e-05
6.939470767974854e-05
6.389617919921875e-05
5.726516246795654e-05
4.972517490386963e-05
4.146993160247803e-05
3.2901763916015625e-05
2.4393200874328613e-05
1.6242265701293945e-05
8.821487426757812e-06
2.562999725341797e-06
-2.2649765014648438e-06
-5.349516868591309e-06
-6.541609764099121e-06
-5.498528480529785e-06
-2.1457672119140625e-06
3.546476364135742e-06
1.1712312698364258e-05
2.2158026695251465e-05
3.471970558166504e-05
4.8980116844177246e-05
6.431341171264648e-05
8.0108642578125e-05
9.544193744659424e-05
0.00010930001735687256
0.00012065470218658447
0.00012855231761932373
0.00013212859630584717
0.00013086199760437012
0.00012439489364624023
0.00011299550533294678
9.705126285552979e-05
7.729232311248779e-05
5.474686622619629e-05
3.0606985092163086e-05
5.8710575103759766e-06
-1.8388032913208008e-05
-4.139542579650879e-05
-6.258487701416016e-05
-8.146464824676514e-05
-9.804964065551758e-05
-0.0001122206449508667
-0.00012421607971191406
-0.00013421475887298584
-0.0001424252986907959
-0.00014910101890563965
-0.00015459954738616943
-0.00015915930271148682
-0.00016289949417114258
-0.0001659989356994629
-0.00016871094703674316
-0.0001710653305053711
-0.00017309188842773438
-0.00017471611499786377
-0.00017593801021575928
-0.00017671287059783936
-0.00017686188220977783
-0.00017639994621276855
-0.00017534196376800537
-0.00017352402210235596
-0.00017124414443969727
-0.00016836822032928467
-0.00016513466835021973
-0.00016170740127563477
-0.00015810132026672363
-0.00015461444854736328
-0.0001513659954071045
-0.00014844536781311035
-0.00014601647853851318
-0.00014415383338928223
-0.00014291703701019287
-0.0001423358917236328
-0.00014238059520721436
-0.00014315545558929443
-0.00014452636241912842
-0.000146523118019104
-0.00014899671077728271
-0.00015194714069366455
-0.00015519559383392334
-0.000158652663230896
-0.00016219913959503174
-0.00016567111015319824
-0.00016896426677703857
5.4970383644104004e-05
5.418062210083008e-05
5.429983139038086e-05
5.519390106201172e-05
5.683302879333496e-05
5.900859832763672e-05
6.172060966491699e-05
6.483495235443115e-05
6.809830665588379e-05
7.148087024688721e-05
7.46697187423706e-05
7.753074169158936e-05
7.97957181930542e-05
8.128583431243896e-05
8.180737495422363e-05
8.109211921691895e-05
7.906556129455566e-05
7.56978988647461e-05
7.08550214767456e-05
6.477534770965576e-05
5.762279033660889e-05
4.9561262130737305e-05
4.09930944442749e-05
3.229081630706787e-05
2.3826956748962402e-05
1.621246337890625e-05
9.819865226745605e-06
4.991888999938965e-06
2.3543834686279297e-06
2.1457672119140625e-06
4.887580871582031e-06
1.0818243026733398e-05
2.0325183868408203e-05
3.364682197570801e-05
5.1021575927734375e-05
7.221102714538574e-05
9.725987911224365e-05
0.0001255720853805542
0.00015628337860107422
0.00018829107284545898
0.00021998584270477295
0.00024975836277008057
0.00027558207511901855
0.00029550492763519287
0.0003078877925872803
0.0003115236759185791
0.00030566751956939697
0.0002903789281845093
0.0002663135528564453
0.00023473799228668213
0.00019744038581848145
0.00015647709369659424
0.00011390447616577148
7.158517837524414e-05
3.1113624572753906e-05
-6.318092346191406e-06
-3.9950013160705566e-05
-6.937980651855469e-05
-9.451806545257568e-05
-0.00011566281318664551
-0.0001329481601715088
-0.0001469254493713379
-0.00015798211097717285
-0.0001665055751800537
-0.0001730024814605713