# vtk DataFile Version 3.0
2D PINN Solution
ASCII
DATASET STRUCTURED_GRID
DIMENSIONS 100 100 1
POINTS 10000 float
-1.0 -1.0 0.0
-0.9797979797979798 -1.0 0.0
-0.9595959595959596 -1.0 0.0
-0.9393939393939394 -1.0 0.0
-0.9191919191919192 -1.0 0.0
-0.898989898989899 -1.0 0.0
-0.8787878787878788 -1.0 0.0
-0.8585858585858586 -1.0 0.0
-0.8383838383838383 -1.0 0.0
-0.8181818181818181 -1.0 0.0
-0.797979797979798 -1.0 0.0
-0.7777777777777778 -1.0 0.0
-0.7575757575757576 -1.0 0.0
-0.7373737373737373 -1.0 0.0
-0.7171717171717171 -1.0 0.0
-0.696969696969697 -1.0 0.0
-0.6767676767676767 -1.0 0.0
-0.6565656565656566 -1.0 0.0
-0.6363636363636364 -1.0 0.0
-0.6161616161616161 -1.0 0.0
-0.5959595959595959 -1.0 0.0
-0.5757575757575757 -1.0 0.0
-0.5555555555555556 -1.0 0.0
-0.5353535353535352 -1.0 0.0
-0.5151515151515151 -1.0 0.0
-0.4949494949494949 -1.0 0.0
-0.4747474747474747 -1.0 0.0
-0.4545454545454545 -1.0 0.0
-0.43434343434343425 -1.0 0.0
-0.41414141414141414 -1.0 0.0
-0.3939393939393939 -1.0 0.0
-0.3737373737373737 -1.0 0.0
-0.3535353535353535 -1.0 0.0
-0.33333333333333326 -1.0 0.0
-0.31313131313131304 -1.0 0.0
-0.2929292929292928 -1.0 0.0
-0.2727272727272727 -1.0 0.0
-0.2525252525252525 -1.0 0.0
-0.23232323232323226 -1.0 0.0
-0.21212121212121204 -1.0 0.0
-0.19191919191919182 -1.0 0.0
-0.1717171717171716 -1.0 0.0
-0.1515151515151515 -1.0 0.0
-0.13131313131313127 -1.0 0.0
-0.11111111111111105 -1.0 0.0
-0.09090909090909083 -1.0 0.0
-0.07070707070707061 -1.0 0.0
-0.050505050505050386 -1.0 0.0
-0.030303030303030276 -1.0 0.0
-0.010101010101010055 -1.0 0.0
0.010101010101010166 -1.0 0.0
0.030303030303030498 -1.0 0.0
0.05050505050505061 -1.0 0.0
0.07070707070707072 -1.0 0.0
0.09090909090909105 -1.0 0.0
0.11111111111111116 -1.0 0.0
0.1313131313131315 -1.0 0.0
0.1515151515151516 -1.0 0.0
0.1717171717171717 -1.0 0.0
0.19191919191919204 -1.0 0.0
0.21212121212121215 -1.0 0.0
0.2323232323232325 -1.0 0.0
0.2525252525252526 -1.0 0.0
0.27272727272727293 -1.0 0.0
0.29292929292929304 -1.0 0.0
0.31313131313131315 -1.0 0.0
0.3333333333333335 -1.0 0.0
0.3535353535353536 -1.0 0.0
0.3737373737373739 -1.0 0.0
0.39393939393939403 -1.0 0.0
0.41414141414141437 -1.0 0.0
0.4343434343434345 -1.0 0.0
0.4545454545454546 -1.0 0.0
0.4747474747474749 -1.0 0.0
0.49494949494949503 -1.0 0.0
0.5151515151515154 -1.0 0.0
0.5353535353535355 -1.0 0.0
0.5555555555555556 -1.0 0.0
0.5757575757575759 -1.0 0.0
0.595959595959596 -1.0 0.0
0.6161616161616164 -1.0 0.0
0.6363636363636365 -1.0 0.0
0.6565656565656568 -1.0 0.0
0.6767676767676769 -1.0 0.0
0.696969696969697 -1.0 0.0
0.7171717171717173 -1.0 0.0
0.7373737373737375 -1.0 0.0
0.7575757575757578 -1.0 0.0
0.7777777777777779 -1.0 0.0
0.7979797979797982 -1.0 0.0
0.8181818181818183 -1.0 0.0
0.8383838383838385 -1.0 0.0
0.8585858585858588 -1.0 0.0
0.8787878787878789 -1.0 0.0
0.8989898989898992 -1.0 0.0
0.9191919191919193 -1.0 0.0
0.9393939393939394 -1.0 0.0
0.9595959595959598 -1.0 0.0
0.9797979797979799 -1.0 0.0
1.0 -1.0 0.0
-1.0 -0.9797979797979798 0.0
-0.9797979797979798 -0.9797979797979798 0.0
-0.9595959595959596 -0.9797979797979798 0.0
-0.9393939393939394 -0.9797979797979798 0.0
-0.9191919191919192 -0.9797979797979798 0.0
-0.898989898989899 -0.9797979797979798 0.0
-0.8787878787878788 -0.9797979797979798 0.0
-0.8585858585858586 -0.9797979797979798 0.0
-0.8383838383838383 -0.9797979797979798 0.0
-0.8181818181818181 -0.9797979797979798 0.0
-0.797979797979798 -0.9797979797979798 0.0
-0.7777777777777778 -0.9797979797979798 0.0
-0.7575757575757576 -0.9797979797979798 0.0
-0.7373737373737373 -0.9797979797979798 0.0
-0.7171717171717171 -0.9797979797979798 0.0
-0.696969696969697 -0.9797979797979798 0.0
-0.6767676767676767 -0.9797979797979798 0.0
-0.6565656565656566 -0.9797979797979798 0.0
-0.6363636363636364 -0.9797979797979798 0.0
-0.6161616161616161 -0.9797979797979798 0.0
-0.5959595959595959 -0.9797979797979798 0.0
-0.5757575757575757 -0.9797979797979798 0.0
-0.5555555555555556 -0.9797979797979798 0.0
-0.5353535353535352 -0.9797979797979798 0.0
-0.5151515151515151 -0.9797979797979798 0.0
-0.4949494949494949 -0.9797979797979798 0.0
-0.4747474747474747 -0.9797979797979798 0.0
-0.4545454545454545 -0.9797979797979798 0.0
-0.43434343434343425 -0.9797979797979798 0.0
-0.41414141414141414 -0.9797979797979798 0.0
-0.3939393939393939 -0.9797979797979798 0.0
-0.3737373737373737 -0.9797979797979798 0.0
-0.3535353535353535 -0.9797979797979798 0.0
-0.33333333333333326 -0.9797979797979798 0.0
-0.31313131313131304 -0.9797979797979798 0.0
-0.2929292929292928 -0.9797979797979798 0.0
-0.2727272727272727 -0.9797979797979798 0.0
-0.2525252525252525 -0.9797979797979798 0.0
-0.23232323232323226 -0.9797979797979798 0.0
-0.21212121212121204 -0.9797979797979798 0.0
-0.19191919191919182 -0.9797979797979798 0.0
-0.1717171717171716 -0.9797979797979798 0.0
-0.1515151515151515 -0.9797979797979798 0.0
-0.13131313131313127 -0.9797979797979798 0.0
-0.11111111111111105 -0.9797979797979798 0.0
-0.09090909090909083 -0.9797979797979798 0.0
-0.07070707070707061 -0.9797979797979798 0.0
-0.050505050505050386 -0.9797979797979798 0.0
-0.030303030303030276 -0.9797979797979798 0.0
-0.010101010101010055 -0.9797979797979798 0.0
0.010101010101010166 -0.9797979797979798 0.0
0.030303030303030498 -0.9797979797979798 0.0
0.05050505050505061 -0.9797979797979798 0.0
0.07070707070707072 -0.9797979797979798 0.0
0.09090909090909105 -0.9797979797979798 0.0
0.11111111111111116 -0.9797979797979798 0.0
0.1313131313131315 -0.9797979797979798 0.0
0.1515151515151516 -0.9797979797979798 0.0
0.1717171717171717 -0.9797979797979798 0.0
0.19191919191919204 -0.9797979797979798 0.0
0.21212121212121215 -0.9797979797979798 0.0
0.2323232323232325 -0.9797979797979798 0.0
0.2525252525252526 -0.9797979797979798 0.0
0.27272727272727293 -0.9797979797979798 0.0
0.29292929292929304 -0.9797979797979798 0.0
0.31313131313131315 -0.9797979797979798 0.0
0.3333333333333335 -0.9797979797979798 0.0
0.3535353535353536 -0.9797979797979798 0.0
0.3737373737373739 -0.9797979797979798 0.0
0.39393939393939403 -0.9797979797979798 0.0
0.41414141414141437 -0.9797979797979798 0.0
0.4343434343434345 -0.9797979797979798 0.0
0.4545454545454546 -0.9797979797979798 0.0
0.4747474747474749 -0.9797979797979798 0.0
0.49494949494949503 -0.9797979797979798 0.0
0.5151515151515154 -0.9797979797979798 0.0
0.5353535353535355 -0.9797979797979798 0.0
0.5555555555555556 -0.9797979797979798 0.0
0.5757575757575759 -0.9797979797979798 0.0
0.595959595959596 -0.9797979797979798 0.0
0.6161616161616164 -0.9797979797979798 0.0
0.6363636363636365 -0.9797979797979798 0.0
0.6565656565656568 -0.9797979797979798 0.0
0.6767676767676769 -0.9797979797979798 0.0
0.696969696969697 -0.9797979797979798 0.0
0.7171717171717173 -0.9797979797979798 0.0
0.7373737373737375 -0.9797979797979798 0.0
0.7575757575757578 -0.9797979797979798 0.0
0.7777777777777779 -0.9797979797979798 0.0
0.7979797979797982 -0.9797979797979798 0.0
0.8181818181818183 -0.9797979797979798 0.0
0.8383838383838385 -0.9797979797979798 0.0
0.8585858585858588 -0.9797979797979798 0.0
0.8787878787878789 -0.9797979797979798 0.0
0.8989898989898992 -0.9797979797979798 0.0
0.9191919191919193 -0.9797979797979798 0.0
0.9393939393939394 -0.9797979797979798 0.0
0.9595959595959598 -0.9797979797979798 0.0
0.9797979797979799 -0.9797979797979798 0.0
1.0 -0.9797979797979798 0.0
-1.0 -0.9595959595959596 0.0
-0.9797979797979798 -0.9595959595959596 0.0
-0.9595959595959596 -0.9595959595959596 0.0
-0.9393939393939394 -0.9595959595959596 0.0
-0.9191919191919192 -0.9595959595959596 0.0
-0.898989898989899 -0.9595959595959596 0.0
-0.8787878787878788 -0.9595959595959596 0.0
-0.8585858585858586 -0.9595959595959596 0.0
-0.8383838383838383 -0.9595959595959596 0.0
-0.8181818181818181 -0.9595959595959596 0.0
-0.797979797979798 -0.9595959595959596 0.0
-0.7777777777777778 -0.9595959595959596 0.0
-0.7575757575757576 -0.9595959595959596 0.0
-0.7373737373737373 -0.9595959595959596 0.0
-0.7171717171717171 -0.9595959595959596 0.0
-0.696969696969697 -0.9595959595959596 0.0
-0.6767676767676767 -0.9595959595959596 0.0
-0.6565656565656566 -0.9595959595959596 0.0
-0.6363636363636364 -0.9595959595959596 0.0
-0.6161616161616161 -0.9595959595959596 0.0
-0.5959595959595959 -0.9595959595959596 0.0
-0.5757575757575757 -0.9595959595959596 0.0
-0.5555555555555556 -0.9595959595959596 0.0
-0.5353535353535352 -0.9595959595959596 0.0
-0.5151515151515151 -0.9595959595959596 0.0
-0.4949494949494949 -0.9595959595959596 0.0
-0.4747474747474747 -0.9595959595959596 0.0
-0.4545454545454545 -0.9595959595959596 0.0
-0.43434343434343425 -0.9595959595959596 0.0
-0.41414141414141414 -0.9595959595959596 0.0
-0.3939393939393939 -0.9595959595959596 0.0
-0.3737373737373737 -0.9595959595959596 0.0
-0.3535353535353535 -0.9595959595959596 0.0
-0.33333333333333326 -0.9595959595959596 0.0
-0.31313131313131304 -0.9595959595959596 0.0
-0.2929292929292928 -0.9595959595959596 0.0
-0.2727272727272727 -0.9595959595959596 0.0
-0.2525252525252525 -0.9595959595959596 0.0
-0.23232323232323226 -0.9595959595959596 0.0
-0.21212121212121204 -0.9595959595959596 0.0
-0.19191919191919182 -0.9595959595959596 0.0
-0.1717171717171716 -0.9595959595959596 0.0
-0.1515151515151515 -0.9595959595959596 0.0
-0.13131313131313127 -0.9595959595959596 0.0
-0.11111111111111105 -0.9595959595959596 0.0
-0.09090909090909083 -0.9595959595959596 0.0
-0.07070707070707061 -0.9595959595959596 0.0
-0.050505050505050386 -0.9595959595959596 0.0
-0.030303030303030276 -0.9595959595959596 0.0
-0.010101010101010055 -0.9595959595959596 0.0
0.010101010101010166 -0.9595959595959596 0.0
0.030303030303030498 -0.9595959595959596 0.0
0.05050505050505061 -0.9595959595959596 0.0
0.07070707070707072 -0.9595959595959596 0.0
0.09090909090909105 -0.9595959595959596 0.0
0.11111111111111116 -0.9595959595959596 0.0
0.1313131313131315 -0.9595959595959596 0.0
0.1515151515151516 -0.9595959595959596 0.0
0.1717171717171717 -0.9595959595959596 0.0
0.19191919191919204 -0.9595959595959596 0.0
0.21212121212121215 -0.9595959595959596 0.0
[...]
POINT_DATA 10000
SCALARS u float 1
LOOKUP_TABLE default
8.217990398406982e-05
8.07344913482666e-05
7.930397987365723e-05
7.793307304382324e-05
7.668137550354004e-05
7.537007331848145e-05
7.408857345581055e-05
7.27623701095581e-05
7.142126560211182e-05
6.99758529663086e-05
6.847083568572998e-05
6.683170795440674e-05
6.51627779006958e-05
6.337463855743408e-05
6.142258644104004e-05
5.942583084106445e-05
5.7369470596313477e-05
5.525350570678711e-05
5.30928373336792e-05
5.094707012176514e-05
4.8860907554626465e-05
4.678964614868164e-05
4.4912099838256836e-05
4.32133674621582e-05
4.1678547859191895e-05
4.044175148010254e-05
3.9517879486083984e-05
3.8877129554748535e-05
3.869831562042236e-05
3.883242607116699e-05
3.930926322937012e-05
4.018843173980713e-05
4.139542579650879e-05
4.287064075469971e-05
4.4599175453186035e-05
4.6581029891967773e-05
4.8801302909851074e-05
5.112588405609131e-05
5.373358726501465e-05
5.653500556945801e-05
5.964934825897217e-05
6.304681301116943e-05
6.677210330963135e-05
7.095932960510254e-05
7.550418376922607e-05
8.04215669631958e-05
8.565187454223633e-05
9.113550186157227e-05
9.678304195404053e-05
0.00010247528553009033
0.00010804831981658936
0.00011332333087921143
0.00011818110942840576
0.0001223534345626831
0.00012561678886413574
0.00012791156768798828
0.00012877583503723145
0.00012822449207305908
0.0001261383295059204
0.0001223534345626831
0.00011704862117767334
0.00011020898818969727
0.00010207295417785645
9.278953075408936e-05
8.26716423034668e-05
7.180869579315186e-05
6.0617923736572266e-05
4.9233436584472656e-05
3.7997961044311523e-05
2.7164816856384277e-05
1.671910285949707e-05
6.9588422775268555e-06
-2.2649765014648438e-06
-1.0967254638671875e-05
-1.9356608390808105e-05
-2.7611851692199707e-05
-3.573298454284668e-05
-4.3839216232299805e-05
-5.1662325859069824e-05
-5.914270877838135e-05
-6.599724292755127e-05
-7.197260856628418e-05
-7.684528827667236e-05
-8.071959018707275e-05
-8.36104154586792e-05
-8.560717105865479e-05
-8.721649646759033e-05
-8.884072303771973e-05
-9.074807167053223e-05
-9.347498416900635e-05
-9.72747802734375e-05
-0.0001023411750793457
-0.00010876357555389404
-0.00011670589447021484
-0.00012572109699249268
-0.00013585388660430908
-0.00014674663543701172
-0.0001580566167831421
-0.00016959011554718018
-0.00018097460269927979
8.600950241088867e-05
8.465349674224854e-05
8.320808410644531e-05
8.188188076019287e-05
8.048117160797119e-05
7.903575897216797e-05
7.75754451751709e-05
7.610023021697998e-05
7.449090480804443e-05
7.27623701095581e-05
7.0914626121521e-05
6.899237632751465e-05
6.689131259918213e-05
6.474554538726807e-05
6.246566772460938e-05
6.008148193359375e-05
5.762279033660889e-05
5.5208802223205566e-05
5.2794814109802246e-05
5.0395727157592773e-05
4.8100948333740234e-05
4.585087299346924e-05
4.388391971588135e-05
4.2065978050231934e-05
4.054605960845947e-05
3.9249658584594727e-05
3.835558891296387e-05
3.774464130401611e-05
3.750622272491455e-05
3.7610530853271484e-05
3.807246685028076e-05
3.88026237487793e-05
3.984570503234863e-05
4.1112303733825684e-05
4.2632222175598145e-05
4.4345855712890625e-05
4.616379737854004e-05
4.832446575164795e-05
5.060434341430664e-05
5.316734313964844e-05
5.608797073364258e-05
5.933642387390137e-05
6.29723072052002e-05
6.714463233947754e-05
7.173418998718262e-05
7.665157318115234e-05
8.191168308258057e-05
8.748471736907959e-05
9.322166442871094e-05
9.891390800476074e-05
0.00010451674461364746
0.00010986626148223877
0.00011485815048217773
0.00011923909187316895
0.00012287497520446777
0.00012549757957458496
0.00012703239917755127
0.0001271665096282959
0.00012584030628204346
0.00012293457984924316
0.00011844933032989502
0.0001125335693359375
0.0001052170991897583
9.658932685852051e-05
8.697807788848877e-05
7.653236389160156e-05
6.543099880218506e-05
5.392730236053467e-05
4.2319297790527344e-05
3.08305025100708e-05
1.9684433937072754e-05
9.104609489440918e-06
-8.791685104370117e-07
-1.0311603546142578e-05
-1.926720142364502e-05
-2.7760863304138184e-05
-3.59266996383667e-05
-4.391372203826904e-05
-5.154311656951904e-05
-5.868077278137207e-05
-6.528198719024658e-05
-7.113814353942871e-05
-7.608532905578613e-05
-8.000433444976807e-05
-8.313357830047607e-05
-8.55177640914917e-05
-8.736550807952881e-05
-8.912384510040283e-05
-9.122490882873535e-05
-9.387731552124023e-05
-9.740889072418213e-05
-0.00010222196578979492
-0.00010819733142852783
-0.0001154094934463501
-0.00012384355068206787
-0.0001332610845565796
-0.00014346837997436523
-0.00015425682067871094
-0.00016520917415618896
-0.00017614662647247314
8.927285671234131e-05
8.788704872131348e-05
8.64565372467041e-05
8.496642112731934e-05
8.347630500793457e-05
8.188188076019287e-05
8.024275302886963e-05
7.843971252441406e-05
7.653236389160156e-05
7.447600364685059e-05
7.231533527374268e-05
6.999075412750244e-05
6.757676601409912e-05
6.504356861114502e-05
6.243586540222168e-05
5.97536563873291e-05
5.695223808288574e-05
5.4255127906799316e-05
5.161762237548828e-05
4.8995018005371094e-05
4.652142524719238e-05
4.416704177856445e-05
4.209578037261963e-05
4.023313522338867e-05
3.8683414459228516e-05
3.740191459655762e-05
3.644824028015137e-05
3.5822391510009766e-05
3.559887409210205e-05
3.5643577575683594e-05
3.606081008911133e-05
3.668665885925293e-05
3.762543201446533e-05
3.8743019104003906e-05
4.0084123611450195e-05
4.158914089202881e-05
4.330277442932129e-05
4.519522190093994e-05
4.7340989112854004e-05
4.9874186515808105e-05
5.276501178741455e-05
5.5983662605285645e-05
5.97536563873291e-05
6.392598152160645e-05
6.866455078125e-05
7.374584674835205e-05
7.918477058410645e-05
8.487701416015625e-05
9.06139612197876e-05
9.63360071182251e-05
0.00010199844837188721
0.00010734796524047852
0.00011232495307922363
0.00011681020259857178
0.00012068450450897217
0.00012367963790893555
0.00012558698654174805
0.00012637674808502197
0.00012575089931488037
0.000123634934425354
0.00012005865573883057
0.00011499226093292236
0.00010856986045837402
0.00010079145431518555
9.188055992126465e-05
8.189678192138672e-05
7.109344005584717e-05
5.967915058135986e-05
4.7832727432250977e-05
3.59266996383667e-05
2.4124979972839355e-05
1.2725591659545898e-05
1.8328428268432617e-06
-8.404254913330078e-06
-1.8030405044555664e-05
-2.709031105041504e-05
-3.56137752532959e-05
-4.366040229797363e-05
-5.128979682922363e-05
-5.8263540267944336e-05
-6.473064422607422e-05
-7.045269012451172e-05
-7.53551721572876e-05
-7.939338684082031e-05
-8.26418399810791e-05
-8.521974086761475e-05
-8.73953104019165e-05
-8.93622636795044e-05
-9.15229320526123e-05
-9.426474571228027e-05
-9.769201278686523e-05
-0.00010219216346740723
-0.00010779500007629395
-0.00011456012725830078
-0.0001224428415298462
-0.00013130903244018555
-0.00014096498489379883
-0.00015117228031158447
-0.00016161799430847168
-0.00017216801643371582
9.191036224365234e-05
9.036064147949219e-05
8.881092071533203e-05
8.717179298400879e-05
8.547306060791016e-05
8.369982242584229e-05
8.168816566467285e-05
7.966160774230957e-05
7.742643356323242e-05
7.499754428863525e-05
7.249414920806885e-05
6.981194019317627e-05
6.702542304992676e-05
6.413459777832031e-05
6.118416786193848e-05
5.817413330078125e-05
5.517899990081787e-05
5.221366882324219e-05
4.929304122924805e-05
4.6566128730773926e-05
4.392862319946289e-05
4.152953624725342e-05
3.936886787414551e-05
3.74913215637207e-05
3.591179847717285e-05
3.466010093688965e-05
3.3736228942871094e-05
3.324449062347412e-05
3.297626972198486e-05
3.30805778503418e-05
3.3408403396606445e-05
3.403425216674805e-05
3.4943222999572754e-05
3.594160079956055e-05
3.7163496017456055e-05
3.8564205169677734e-05
4.0203332901000977e-05
4.208087921142578e-05
4.419684410095215e-05
4.665553569793701e-05
4.9591064453125e-05
5.2988529205322266e-05
5.6877732276916504e-05
6.128847599029541e-05
6.623566150665283e-05
7.155537605285645e-05
7.718801498413086e-05
8.29845666885376e-05
8.884072303771973e-05
9.460747241973877e-05
0.00010016560554504395
0.00010548532009124756
0.00011044740676879883
0.00011494755744934082
0.00011886656284332275
0.0001221001148223877
0.00012439489364624023
0.00012570619583129883
0.00012569129467010498
0.00012442469596862793
0.0001217275857925415
0.00011757016181945801
0.00011202692985534668
0.0001051872968673706
9.706616401672363e-05
8.778274059295654e-05
7.748603820800781e-05
6.628036499023438e-05
5.4463744163513184e-05
4.225969314575195e-05
3.001093864440918e-05
1.786649227142334e-05
6.124377250671387e-06
-5.0067901611328125e-06
-1.5527009963989258e-05
-2.5317072868347168e-05
-3.434717655181885e-05
-4.2811036109924316e-05
-5.061924457550049e-05
-5.7697296142578125e-05
-6.411969661712646e-05
-6.979703903198242e-05
-7.471442222595215e-05
-7.881224155426025e-05
-8.216500282287598e-05
-8.496642112731934e-05
-8.726119995117188e-05
-8.943676948547363e-05
-9.176135063171387e-05
-9.450316429138184e-05
-9.791553020477295e-05
-0.00010223686695098877
-0.00010758638381958008
-0.00011399388313293457
-0.0001214742660522461
-0.00012986361980438232
-0.00013902783393859863
-0.0001487135887145996
-0.00015878677368164062
-0.00016885995864868164
9.383261203765869e-05
9.210407733917236e-05
9.03010368347168e-05
8.846819400787354e-05
8.64863395690918e-05
8.437037467956543e-05
8.20159912109375e-05
7.957220077514648e-05
7.69495964050293e-05
7.422268390655518e-05
7.133185863494873e-05
6.829202175140381e-05
6.511807441711426e-05
6.189942359924316e-05
5.8650970458984375e-05
5.5342912673950195e-05
5.2094459533691406e-05
4.895031452178955e-05
4.5880675315856934e-05
4.3004751205444336e-05
4.032254219055176e-05
3.795325756072998e-05
3.5762786865234375e-05
3.395974636077881e-05
3.2454729080200195e-05
3.129243850708008e-05
3.0472874641418457e-05
3.001093864440918e-05
2.9847025871276855e-05
2.9996037483215332e-05
3.0443072319030762e-05
3.108382225036621e-05
3.191828727722168e-05
3.293156623840332e-05
3.4108757972717285e-05
3.5509467124938965e-05
3.711879253387451e-05
3.892183303833008e-05
4.105269908905029e-05
4.360079765319824e-05
4.659593105316162e-05
5.014240741729736e-05
5.4210424423217773e-05
5.888938903808594e-05
6.403028964996338e-05
6.961822509765625e-05
7.544457912445068e-05
8.14199447631836e-05
8.73953104019165e-05
9.316205978393555e-05
9.872019290924072e-05
0.00010395050048828125
0.00010880827903747559
0.00011321902275085449
0.00011709332466125488
0.00012049078941345215
0.00012311339378356934
0.00012479722499847412
0.0001255124807357788
0.00012496113777160645
0.00012311339378356934
0.00011989474296569824
0.0001154094934463501
0.00010953843593597412
0.0001023709774017334
9.390711784362793e-05
8.428096771240234e-05
7.350742816925049e-05
6.191432476043701e-05
4.9695372581481934e-05
3.705918788909912e-05
2.4363398551940918e-05
1.1920928955078125e-05
-1.043081283569336e-07
-1.1458992958068848e-05
-2.212822437286377e-05
-3.193318843841553e-05
-4.0978193283081055e-05
-4.918873310089111e-05
-5.65648078918457e-05
-6.319582462310791e-05
-6.89774751663208e-05
-7.392466068267822e-05
-7.811188697814941e-05
-8.162856101989746e-05
-8.45491886138916e-05
-8.702278137207031e-05
-8.934736251831055e-05
-9.18656587600708e-05
-9.465217590332031e-05
-9.813904762268066e-05
-0.00010232627391815186
-0.00010748207569122314
-0.00011363625526428223
-0.00012077391147613525
-0.0001287609338760376
-0.00013752281665802002
-0.0001468062400817871
-0.00015649199485778809
-0.00016620755195617676
9.50247049331665e-05
9.302794933319092e-05
9.094178676605225e-05
8.869171142578125e-05
8.633732795715332e-05
8.383393287658691e-05
8.110702037811279e-05
7.821619510650635e-05
7.517635822296143e-05
7.201731204986572e-05
6.879866123199463e-05
6.532669067382812e-05
6.181001663208008e-05
5.830824375152588e-05
5.476176738739014e-05
5.128979682922363e-05
4.7832727432250977e-05
4.458427429199219e-05
4.141032695770264e-05
3.854930400848389e-05
3.5896897315979004e-05
3.351271152496338e-05
3.147125244140625e-05
2.9727816581726074e-05
2.8386712074279785e-05
2.7388334274291992e-05
2.6702880859375e-05
2.6419758796691895e-05
2.6360154151916504e-05
2.6687979698181152e-05
2.720952033996582e-05
2.7939677238464355e-05
2.8833746910095215e-05
2.9906630516052246e-05
3.109872341156006e-05
3.248453140258789e-05
3.403425216674805e-05
3.580749034881592e-05
3.795325756072998e-05
4.0531158447265625e-05
4.361569881439209e-05
4.725158214569092e-05
5.151331424713135e-05
5.634129047393799e-05
6.167590618133545e-05
6.745755672454834e-05
7.347762584686279e-05
7.961690425872803e-05
8.566677570343018e-05
9.149312973022461e-05
9.702146053314209e-05
0.00010208785533905029
0.0001068115234375
0.00011113286018371582
0.00011508166790008545
0.00011846423149108887
0.00012136995792388916
0.00012350082397460938
0.00012475252151489258
0.00012496113777160645
0.00012405216693878174
0.00012181699275970459
0.00011833012104034424
0.00011362135410308838
0.00010745227336883545
9.995698928833008e-05
9.112060070037842e-05
8.101761341094971e-05
6.985664367675781e-05
5.772709846496582e-05
4.507601261138916e-05
3.21120023727417e-05
1.9088387489318848e-05
6.3478946685791016e-06
-5.885958671569824e-06
-1.7449259757995605e-05
-2.8178095817565918e-05
-3.7983059883117676e-05
-4.678964614868164e-05
-5.467236042022705e-05
-6.161630153656006e-05
-6.765127182006836e-05
-7.286667823791504e-05
-7.721781730651855e-05
-8.082389831542969e-05
-8.392333984375e-05
-8.662045001983643e-05
-8.921325206756592e-05
-9.176135063171387e-05
-9.472668170928955e-05
-9.818375110626221e-05
-0.0001023709774017334
-0.0001074075698852539
-0.00011336803436279297
-0.00012025237083435059
-0.00012798607349395752
-0.00013643503189086914
-0.00014540553092956543
-0.00015470385551452637
-0.00016427040100097656
9.5367431640625e-05
9.299814701080322e-05
9.047985076904297e-05
8.779764175415039e-05
8.498132228851318e-05
8.19861888885498e-05
7.887184619903564e-05
7.556378841400146e-05
7.207691669464111e-05
6.847083568572998e-05
6.480515003204346e-05
6.103515625e-05
5.720555782318115e-05
5.342066287994385e-05
4.972517490386963e-05
4.602968692779541e-05
4.25875186920166e-05
3.923475742340088e-05
3.612041473388672e-05
3.333389759063721e-05
3.075599670410156e-05
2.855062484741211e-05
2.6628375053405762e-05
2.51084566116333e-05
2.397596836090088e-05
2.3186206817626953e-05
2.2798776626586914e-05
2.2664666175842285e-05
2.2873282432556152e-05
2.3350119590759277e-05
2.4005770683288574e-05
2.485513687133789e-05
2.586841583251953e-05
2.6971101760864258e-05
2.8178095817565918e-05
2.9534101486206055e-05
3.1054019927978516e-05
3.288686275482178e-05
3.497302532196045e-05
3.744661808013916e-05
4.051625728607178e-05
4.4152140617370605e-05
4.8413872718811035e-05
5.333125591278076e-05
5.875527858734131e-05
6.464123725891113e-05
7.078051567077637e-05
7.699429988861084e-05
8.310377597808838e-05
8.893013000488281e-05
9.436905384063721e-05
9.939074516296387e-05
0.00010395050048828125
0.00010821223258972168
0.00011207163333892822
0.00011558830738067627
0.00011873245239257812
0.00012129545211791992
0.00012315809726715088
0.00012415647506713867
0.00012411177158355713
0.000122949481010437
0.00012060999870300293
0.00011703372001647949
0.00011205673217773438
0.00010566413402557373
9.778141975402832e-05
8.842349052429199e-05
7.78883695602417e-05
6.614625453948975e-05
5.367398262023926e-05
4.0590763092041016e-05
2.7313828468322754e-05
1.405179500579834e-05
1.1026859283447266e-06
-1.1309981346130371e-05
-2.2873282432556152e-05
-3.3527612686157227e-05
-4.318356513977051e-05
-5.167722702026367e-05
-5.914270877838135e-05
-6.565451622009277e-05
-7.113814353942871e-05
-7.578730583190918e-05
-7.97659158706665e-05
-8.302927017211914e-05
-8.602440357208252e-05
-8.872151374816895e-05
-9.15229320526123e-05
-9.459257125854492e-05
-9.813904762268066e-05
-0.0001023411750793457
-0.00010736286640167236
-0.00011320412158966064
-0.00011993944644927979
-0.00012743473052978516
-0.00013563036918640137
-0.00014437735080718994
-0.00015342235565185547
-0.0001626908779144287
9.47713851928711e-05
9.18954610824585e-05
8.888542652130127e-05
8.572638034820557e-05
8.2358717918396e-05
7.891654968261719e-05
7.523596286773682e-05
7.145106792449951e-05
6.757676601409912e-05
6.358325481414795e-05
5.9545040130615234e-05
5.550682544708252e-05
5.1468610763549805e-05
4.7534704208374023e-05
4.3645501136779785e-05
3.9964914321899414e-05
3.6463141441345215e-05
3.324449062347412e-05
3.02046537399292e-05
2.7552247047424316e-05
2.524256706237793e-05
2.321600914001465e-05
2.1636486053466797e-05
2.034008502960205e-05
1.9490718841552734e-05
1.8984079360961914e-05
1.8849968910217285e-05
1.9058585166931152e-05
1.9490718841552734e-05
2.0176172256469727e-05
2.104043960571289e-05
2.206861972808838e-05
2.3126602172851562e-05
2.4273991584777832e-05
2.5510787963867188e-05
2.6792287826538086e-05
2.82973051071167e-05
2.9921531677246094e-05
3.193318843841553e-05
3.427267074584961e-05
3.713369369506836e-05
4.0650367736816406e-05
4.48077917098999e-05
4.9561262130737305e-05
5.486607551574707e-05
6.076693534851074e-05
6.681680679321289e-05
7.304549217224121e-05
7.905066013336182e-05
8.492171764373779e-05
9.02712345123291e-05
9.520351886749268e-05
9.970366954803467e-05
0.00010386109352111816
0.0001077502965927124
0.00011146068572998047
0.00011482834815979004
0.00011785328388214111
0.00012032687664031982
0.00012211501598358154
0.0001230984926223755
0.0001230388879776001
0.00012195110321044922
0.0001195669174194336
0.00011584162712097168
0.00011068582534790039
0.00010381639003753662
9.542703628540039e-05
8.55475664138794e-05
7.44163990020752e-05
6.23464584350586e-05
4.9442052841186523e-05
3.619492053985596e-05
2.2739171981811523e-05
9.298324584960938e-06
-3.725290298461914e-06
-1.607835292816162e-05
-2.7567148208618164e-05
-3.808736801147461e-05
-4.741549491882324e-05
-5.5596232414245605e-05
-6.264448165893555e-05
-6.86943531036377e-05
-7.380545139312744e-05
-7.808208465576172e-05
-8.176267147064209e-05
-8.499622344970703e-05
-8.800625801086426e-05
-9.101629257202148e-05
-9.429454803466797e-05
-9.79304313659668e-05
-0.00010220706462860107
-0.00010724365711212158
-0.00011301040649414062
-0.00011964142322540283
-0.00012701749801635742
-0.0001350492238998413
-0.00014363229274749756
-0.00015249848365783691
-0.00016158819198608398
9.310245513916016e-05
8.966028690338135e-05
8.605420589447021e-05
8.237361907958984e-05
7.84844160079956e-05
7.44163990020752e-05
7.031857967376709e-05
6.608664989471436e-05
6.182491779327393e-05
5.751848220825195e-05
5.3182244300842285e-05
4.889070987701416e-05
4.4718384742736816e-05
4.076957702636719e-05
3.688037395477295e-05
3.325939178466797e-05
2.98917293548584e-05
2.682209014892578e-05
2.4020671844482422e-05
2.162158489227295e-05
1.958012580871582e-05
1.792609691619873e-05
1.6614794731140137e-05
1.5720725059509277e-05
1.5214085578918457e-05
1.506507396697998e-05
1.5288591384887695e-05
1.5750527381896973e-05
1.646578311920166e-05
1.7434358596801758e-05
1.8477439880371094e-05
1.9609928131103516e-05
2.0831823348999023e-05
2.2023916244506836e-05
2.3156404495239258e-05
2.446770668029785e-05
2.5764107704162598e-05
2.720952033996582e-05
2.89231538772583e-05
3.100931644439697e-05
3.358721733093262e-05
3.6716461181640625e-05
4.0531158447265625e-05
4.4986605644226074e-05
5.005300045013428e-05
5.5596232414245605e-05
6.148219108581543e-05
6.753206253051758e-05
7.350742816925049e-05
7.911026477813721e-05
8.440017700195312e-05
8.925795555114746e-05
9.371340274810791e-05
9.784102439880371e-05
0.00010178983211517334
0.00010557472705841064
0.00010932981967926025
0.00011283159255981445
0.00011597573757171631
0.00011861324310302734
0.00012058019638061523
0.00012177228927612305
0.00012195110321044922
0.00012104213237762451
0.00011871755123138428
0.00011476874351501465
0.00010910630226135254
0.00010173022747039795
9.267032146453857e-05
8.220970630645752e-05
7.064640522003174e-05
5.8263540267944336e-05
4.522502422332764e-05
3.184378147125244e-05
1.8328428268432617e-05
4.991888999938965e-06
-8.031725883483887e-06
-2.0235776901245117e-05
-3.153085708618164e-05
-4.1678547859191895e-05
-5.0693750381469727e-05
-5.84721565246582e-05
-6.522238254547119e-05
-7.08848237991333e-05
-7.571280002593994e-05