# vtk DataFile Version 3.0
2D PINN Solution
ASCII
DATASET STRUCTURED_GRID
DIMENSIONS 100 100 1
POINTS 10000 float
-1.0 -1.0 0.0
-0.9797979797979798 -1.0 0.0
-0.9595959595959596 -1.0 0.0
-0.9393939393939394 -1.0 0.0
-0.9191919191919192 -1.0 0.0
-0.898989898989899 -1.0 0.0
-0.8787878787878788 -1.0 0.0
-0.8585858585858586 -1.0 0.0
-0.8383838383838383 -1.0 0.0
-0.8181818181818181 -1.0 0.0
-0.797979797979798 -1.0 0.0
-0.7777777777777778 -1.0 0.0
-0.7575757575757576 -1.0 0.0
-0.7373737373737373 -1.0 0.0
-0.7171717171717171 -1.0 0.0
-0.696969696969697 -1.0 0.0
-0.6767676767676767 -1.0 0.0
-0.6565656565656566 -1.0 0.0
-0.6363636363636364 -1.0 0.0
-0.6161616161616161 -1.0 0.0
-0.5959595959595959 -1.0 0.0
-0.5757575757575757 -1.0 0.0
-0.5555555555555556 -1.0 0.0
-0.5353535353535352 -1.0 0.0
-0.5151515151515151 -1.0 0.0
-0.4949494949494949 -1.0 0.0
-0.4747474747474747 -1.0 0.0
-0.4545454545454545 -1.0 0.0
-0.43434343434343425 -1.0 0.0
-0.41414141414141414 -1.0 0.0
-0.3939393939393939 -1.0 0.0
-0.3737373737373737 -1.0 0.0
-0.3535353535353535 -1.0 0.0
-0.33333333333333326 -1.0 0.0
-0.31313131313131304 -1.0 0.0
-0.2929292929292928 -1.0 0.0
-0.2727272727272727 -1.0 0.0
-0.2525252525252525 -1.0 0.0
-0.23232323232323226 -1.0 0.0
-0.21212121212121204 -1.0 0.0
-0.19191919191919182 -1.0 0.0
-0.1717171717171716 -1.0 0.0
-0.1515151515151515 -1.0 0.0
-0.13131313131313127 -1.0 0.0
-0.11111111111111105 -1.0 0.0
-0.09090909090909083 -1.0 0.0
-0.07070707070707061 -1.0 0.0
-0.050505050505050386 -1.0 0.0
-0.030303030303030276 -1.0 0.0
-0.010101010101010055 -1.0 0.0
0.010101010101010166 -1.0 0.0
0.030303030303030498 -1.0 0.0
0.05050505050505061 -1.0 0.0
0.07070707070707072 -1.0 0.0
0.09090909090909105 -1.0 0.0
0.11111111111111116 -1.0 0.0
0.1313131313131315 -1.0 0.0
0.1515151515151516 -1.0 0.0
0.1717171717171717 -1.0 0.0
0.19191919191919204 -1.0 0.0
0.21212121212121215 -1.0 0.0
0.2323232323232325 -1.0 0.0
0.2525252525252526 -1.0 0.0
0.27272727272727293 -1.0 0.0
0.29292929292929304 -1.0 0.0
0.31313131313131315 -1.0 0.0
0.3333333333333335 -1.0 0.0
0.3535353535353536 -1.0 0.0
0.3737373737373739 -1.0 0.0
0.39393939393939403 -1.0 0.0
0.41414141414141437 -1.0 0.0
0.4343434343434345 -1.0 0.0
0.4545454545454546 -1.0 0.0
0.4747474747474749 -1.0 0.0
0.49494949494949503 -1.0 0.0
0.5151515151515154 -1.0 0.0
0.5353535353535355 -1.0 0.0
0.5555555555555556 -1.0 0.0
0.5757575757575759 -1.0 0.0
0.595959595959596 -1.0 0.0
0.6161616161616164 -1.0 0.0
0.6363636363636365 -1.0 0.0
0.6565656565656568 -1.0 0.0
0.6767676767676769 -1.0 0.0
0.696969696969697 -1.0 0.0
0.7171717171717173 -1.0 0.0
0.7373737373737375 -1.0 0.0
0.7575757575757578 -1.0 0.0
0.7777777777777779 -1.0 0.0
0.7979797979797982 -1.0 0.0
0.8181818181818183 -1.0 0.0
0.8383838383838385 -1.0 0.0
0.8585858585858588 -1.0 0.0
0.8787878787878789 -1.0 0.0
0.8989898989898992 -1.0 0.0
0.9191919191919193 -1.0 0.0
0.9393939393939394 -1.0 0.0
0.9595959595959598 -1.0 0.0
0.9797979797979799 -1.0 0.0
1.0 -1.0 0.0
-1.0 -0.9797979797979798 0.0
-0.9797979797979798 -0.9797979797979798 0.0
-0.9595959595959596 -0.9797979797979798 0.0
-0.9393939393939394 -0.9797979797979798 0.0
-0.9191919191919192 -0.9797979797979798 0.0
-0.898989898989899 -0.9797979797979798 0.0
-0.8787878787878788 -0.9797979797979798 0.0
-0.8585858585858586 -0.9797979797979798 0.0
-0.8383838383838383 -0.9797979797979798 0.0
-0.8181818181818181 -0.9797979797979798 0.0
-0.797979797979798 -0.9797979797979798 0.0
-0.7777777777777778 -0.9797979797979798 0.0
-0.7575757575757576 -0.9797979797979798 0.0
-0.7373737373737373 -0.9797979797979798 0.0
-0.7171717171717171 -0.9797979797979798 0.0
-0.696969696969697 -0.9797979797979798 0.0
-0.6767676767676767 -0.9797979797979798 0.0
-0.6565656565656566 -0.9797979797979798 0.0
-0.6363636363636364 -0.9797979797979798 0.0
-0.6161616161616161 -0.9797979797979798 0.0
-0.5959595959595959 -0.9797979797979798 0.0
-0.5757575757575757 -0.9797979797979798 0.0
-0.5555555555555556 -0.9797979797979798 0.0
-0.5353535353535352 -0.9797979797979798 0.0
-0.5151515151515151 -0.9797979797979798 0.0
-0.4949494949494949 -0.9797979797979798 0.0
-0.4747474747474747 -0.9797979797979798 0.0
-0.4545454545454545 -0.9797979797979798 0.0
-0.43434343434343425 -0.9797979797979798 0.0
-0.41414141414141414 -0.9797979797979798 0.0
-0.3939393939393939 -0.9797979797979798 0.0
-0.3737373737373737 -0.9797979797979798 0.0
-0.3535353535353535 -0.9797979797979798 0.0
-0.33333333333333326 -0.9797979797979798 0.0
-0.31313131313131304 -0.9797979797979798 0.0
-0.2929292929292928 -0.9797979797979798 0.0
-0.2727272727272727 -0.9797979797979798 0.0
-0.2525252525252525 -0.9797979797979798 0.0
-0.23232323232323226 -0.9797979797979798 0.0
-0.21212121212121204 -0.9797979797979798 0.0
-0.19191919191919182 -0.9797979797979798 0.0
-0.1717171717171716 -0.9797979797979798 0.0
-0.1515151515151515 -0.9797979797979798 0.0
-0.13131313131313127 -0.9797979797979798 0.0
-0.11111111111111105 -0.9797979797979798 0.0
-0.09090909090909083 -0.9797979797979798 0.0
-0.07070707070707061 -0.9797979797979798 0.0
-0.050505050505050386 -0.9797979797979798 0.0
-0.030303030303030276 -0.9797979797979798 0.0
-0.010101010101010055 -0.9797979797979798 0.0
0.010101010101010166 -0.9797979797979798 0.0
0.030303030303030498 -0.9797979797979798 0.0
0.05050505050505061 -0.9797979797979798 0.0
0.07070707070707072 -0.9797979797979798 0.0
0.09090909090909105 -0.9797979797979798 0.0
0.11111111111111116 -0.9797979797979798 0.0
0.1313131313131315 -0.9797979797979798 0.0
0.1515151515151516 -0.9797979797979798 0.0
0.1717171717171717 -0.9797979797979798 0.0
0.19191919191919204 -0.9797979797979798 0.0
0.21212121212121215 -0.9797979797979798 0.0
0.2323232323232325 -0.9797979797979798 0.0
0.2525252525252526 -0.9797979797979798 0.0
0.27272727272727293 -0.9797979797979798 0.0
0.29292929292929304 -0.9797979797979798 0.0
0.31313131313131315 -0.9797979797979798 0.0
0.3333333333333335 -0.9797979797979798 0.0
0.3535353535353536 -0.9797979797979798 0.0
0.3737373737373739 -0.9797979797979798 0.0
0.39393939393939403 -0.9797979797979798 0.0
0.41414141414141437 -0.9797979797979798 0.0
0.4343434343434345 -0.9797979797979798 0.0
0.4545454545454546 -0.9797979797979798 0.0
0.4747474747474749 -0.9797979797979798 0.0
0.49494949494949503 -0.9797979797979798 0.0
0.5151515151515154 -0.9797979797979798 0.0
0.5353535353535355 -0.9797979797979798 0.0
0.5555555555555556 -0.9797979797979798 0.0
0.5757575757575759 -0.9797979797979798 0.0
0.595959595959596 -0.9797979797979798 0.0
0.6161616161616164 -0.9797979797979798 0.0
0.6363636363636365 -0.9797979797979798 0.0
0.6565656565656568 -0.9797979797979798 0.0
0.6767676767676769 -0.9797979797979798 0.0
0.696969696969697 -0.9797979797979798 0.0
0.7171717171717173 -0.9797979797979798 0.0
0.7373737373737375 -0.9797979797979798 0.0
0.7575757575757578 -0.9797979797979798 0.0
0.7777777777777779 -0.9797979797979798 0.0
0.7979797979797982 -0.9797979797979798 0.0
0.8181818181818183 -0.9797979797979798 0.0
0.8383838383838385 -0.9797979797979798 0.0
0.8585858585858588 -0.9797979797979798 0.0
0.8787878787878789 -0.9797979797979798 0.0
0.8989898989898992 -0.9797979797979798 0.0
0.9191919191919193 -0.9797979797979798 0.0
0.9393939393939394 -0.9797979797979798 0.0
0.9595959595959598 -0.9797979797979798 0.0
0.9797979797979799 -0.9797979797979798 0.0
1.0 -0.9797979797979798 0.0
-1.0 -0.9595959595959596 0.0
-0.9797979797979798 -0.9595959595959596 0.0
-0.9595959595959596 -0.9595959595959596 0.0
-0.9393939393939394 -0.9595959595959596 0.0
-0.9191919191919192 -0.9595959595959596 0.0
-0.898989898989899 -0.9595959595959596 0.0
-0.8787878787878788 -0.9595959595959596 0.0
-0.8585858585858586 -0.9595959595959596 0.0
-0.8383838383838383 -0.9595959595959596 0.0
-0.8181818181818181 -0.9595959595959596 0.0
-0.797979797979798 -0.9595959595959596 0.0
-0.7777777777777778 -0.9595959595959596 0.0
-0.7575757575757576 -0.9595959595959596 0.0
-0.7373737373737373 -0.9595959595959596 0.0
-0.7171717171717171 -0.9595959595959596 0.0
-0.696969696969697 -0.9595959595959596 0.0
-0.6767676767676767 -0.9595959595959596 0.0
-0.6565656565656566 -0.9595959595959596 0.0
-0.6363636363636364 -0.9595959595959596 0.0
-0.6161616161616161 -0.9595959595959596 0.0
-0.5959595959595959 -0.9595959595959596 0.0
-0.5757575757575757 -0.9595959595959596 0.0
-0.5555555555555556 -0.9595959595959596 0.0
-0.5353535353535352 -0.9595959595959596 0.0
-0.5151515151515151 -0.9595959595959596 0.0
-0.4949494949494949 -0.9595959595959596 0.0
-0.4747474747474747 -0.9595959595959596 0.0
-0.4545454545454545 -0.9595959595959596 0.0
-0.43434343434343425 -0.9595959595959596 0.0
-0.41414141414141414 -0.9595959595959596 0.0
-0.3939393939393939 -0.9595959595959596 0.0
-0.3737373737373737 -0.9595959595959596 0.0
-0.3535353535353535 -0.9595959595959596 0.0
-0.33333333333333326 -0.9595959595959596 0.0
-0.31313131313131304 -0.9595959595959596 0.0
-0.2929292929292928 -0.9595959595959596 0.0
-0.2727272727272727 -0.9595959595959596 0.0
-0.2525252525252525 -0.9595959595959596 0.0
-0.23232323232323226 -0.9595959595959596 0.0
-0.21212121212121204 -0.9595959595959596 0.0
-0.19191919191919182 -0.9595959595959596 0.0
-0.1717171717171716 -0.9595959595959596 0.0
-0.1515151515151515 -0.9595959595959596 0.0
-0.13131313131313127 -0.9595959595959596 0.0
-0.11111111111111105 -0.9595959595959596 0.0
-0.09090909090909083 -0.9595959595959596 0.0
-0.07070707070707061 -0.9595959595959596 0.0
-0.050505050505050386 -0.9595959595959596 0.0
-0.030303030303030276 -0.9595959595959596 0.0
-0.010101010101010055 -0.9595959595959596 0.0
0.010101010101010166 -0.9595959595959596 0.0
0.030303030303030498 -0.9595959595959596 0.0
0.05050505050505061 -0.9595959595959596 0.0
0.07070707070707072 -0.9595959595959596 0.0
0.09090909090909105 -0.9595959595959596 0.0
0.11111111111111116 -0.9595959595959596 0.0
0.1313131313131315 -0.9595959595959596 0.0
0.1515151515151516 -0.9595959595959596 0.0
0.1717171717171717 -0.9595959595959596 0.0
0.19191919191919204 -0.9595959595959596 0.0
0.21212121212121215 -0.9595959595959596 0.0
[...]
POINT_DATA 10000
SCALARS u float 1
LOOKUP_TABLE default
-0.0001246333122253418
-0.0001360177993774414
-0.00014685094356536865
-0.00015726685523986816
-0.00016708672046661377
-0.00017639994621276855
-0.00018513202667236328
-0.00019344687461853027
-0.00020125508308410645
-0.0002085864543914795
-0.0002155900001525879
-0.00022220611572265625
-0.00022849440574645996
-0.0002345740795135498
-0.00024031102657318115
-0.000245898962020874
-0.0002512037754058838
-0.00025631487369537354
-0.0002609938383102417
-0.0002652853727340698
-0.00026901066303253174
-0.0002722442150115967
-0.0002747178077697754
-0.00027652084827423096
-0.00027748942375183105
-0.00027774274349212646
-0.0002772808074951172
-0.00027617812156677246
-0.0002745985984802246
-0.0002725571393966675
-0.0002700984477996826
-0.00026729702949523926
-0.0002641230821609497
-0.0002605170011520386
-0.00025662779808044434
-0.0002522319555282593
-0.0002474188804626465
-0.0002421736717224121
-0.00023643672466278076
-0.00023028254508972168
-0.0002237260341644287
-0.0002167820930480957
-0.00020959973335266113
-0.0002022087574005127
-0.00019469857215881348
-0.0001872330904006958
-0.00017979741096496582
-0.0001726597547531128
-0.00016580522060394287
-0.00015938282012939453
-0.00015345215797424316
-0.000148087739944458
-0.00014331936836242676
-0.00013914704322814941
-0.00013571977615356445
-0.00013299286365509033
-0.0001309812068939209
-0.0001297593116760254
-0.00012908875942230225
-0.00012911856174468994
-0.00012974441051483154
-0.00013084709644317627
-0.00013238191604614258
-0.0001341700553894043
-0.00013621151447296143
-0.00013828277587890625
-0.00014024972915649414
-0.0001421719789505005
-0.0001439303159713745
-0.0001453608274459839
-0.00014662742614746094
-0.0001475811004638672
-0.00014831125736236572
-0.00014884769916534424
-0.00014916062355041504
-0.00014929473400115967
-0.00014926493167877197
-0.00014925003051757812
-0.00014896690845489502
-0.00014862418174743652
-0.00014819204807281494
-0.00014765560626983643
-0.00014710426330566406
-0.00014641880989074707
-0.00014591217041015625
-0.00014540553092956543
-0.00014512240886688232
-0.00014507770538330078
-0.00014534592628479004
-0.00014609098434448242
-0.00014728307723999023
-0.00014895200729370117
-0.00015126168727874756
-0.00015413761138916016
-0.00015754997730255127
-0.0001614391803741455
-0.00016576051712036133
-0.0001704096794128418
-0.00017520785331726074
-0.0001800060272216797
-0.00013342499732971191
-0.00014469027519226074
-0.00015525519847869873
-0.00016514956951141357
-0.00017431378364562988
-0.00018292665481567383
-0.00019086897373199463
-0.00019828975200653076
-0.00020515918731689453
-0.00021158158779144287
-0.00021760165691375732
-0.00022329390048980713
-0.00022861361503601074
-0.0002337247133255005
-0.00023868680000305176
-0.00024349987506866455
-0.00024813413619995117
-0.000252649188041687
-0.00025700032711029053
-0.00026106834411621094
-0.0002649277448654175
-0.00026829540729522705
-0.00027114152908325195
-0.0002733469009399414
-0.00027498602867126465
-0.0002758800983428955
-0.0002760887145996094
-0.00027573108673095703
-0.0002747178077697754
-0.00027310848236083984
-0.0002710074186325073
-0.0002683103084564209
-0.00026516616344451904
-0.00026144087314605713
-0.00025722384452819824
-0.00025250017642974854
-0.0002472102642059326
-0.00024139881134033203
-0.00023511052131652832
-0.0002283155918121338
-0.00022110342979431152
-0.00021353363990783691
-0.00020572543144226074
-0.00019769370555877686
-0.00018952786922454834
-0.00018146634101867676
-0.00017349421977996826
-0.00016583502292633057
-0.00015851855278015137
-0.00015169382095336914
-0.00014528632164001465
-0.0001395195722579956
-0.000134393572807312
-0.0001299530267715454
-0.00012621283531188965
-0.00012324750423431396
-0.00012111663818359375
-0.00011964142322540283
-0.00011900067329406738
-0.00011909008026123047
-0.00011979043483734131
-0.0001211315393447876
-0.00012286007404327393
-0.0001249760389328003
-0.00012731552124023438
-0.0001297295093536377
-0.00013206899166107178
-0.00013431906700134277
-0.0001363605260848999
-0.00013810396194458008
-0.00013943016529083252
-0.00014059245586395264
-0.00014130771160125732
-0.0001418590545654297
-0.00014215707778930664
-0.00014224648475646973
-0.00014218688011169434
-0.00014190375804901123
-0.0001415461301803589
-0.00014105439186096191
-0.00014044344425201416
-0.00013972818851470947
-0.00013887882232666016
-0.00013799965381622314
-0.00013710558414459229
-0.00013625621795654297
-0.00013555586338043213
-0.0001350492238998413
-0.00013487040996551514
-0.0001351386308670044
-0.00013580918312072754
-0.00013716518878936768
-0.00013914704322814941
-0.00014169514179229736
-0.00014504790306091309
-0.0001490563154220581
-0.0001536160707473755
-0.0001586824655532837
-0.00016410648822784424
-0.0001697540283203125
-0.0001417398452758789
-0.00015267729759216309
-0.00016282498836517334
-0.0001720637083053589
-0.0001806020736694336
-0.00018838047981262207
-0.00019547343254089355
-0.00020198523998260498
-0.00020799040794372559
-0.00021347403526306152
-0.00021851062774658203
-0.0002232193946838379
-0.00022774934768676758
-0.00023199617862701416
-0.00023618340492248535
-0.0002403557300567627
-0.00024446845054626465
-0.0002486109733581543
-0.00025269389152526855
-0.00025673210620880127
-0.0002606213092803955
-0.00026419758796691895
-0.0002674609422683716
-0.0002702176570892334
-0.00027245283126831055
-0.0002740025520324707
-0.00027483701705932617
-0.00027504563331604004
-0.0002745389938354492
-0.0002733469009399414
-0.0002714991569519043
-0.0002690255641937256
-0.00026588141918182373
-0.00026200711727142334
-0.00025753676891326904
-0.0002524256706237793
-0.0002467334270477295
-0.00024034082889556885
-0.00023348629474639893
-0.00022611021995544434
-0.00021836161613464355
-0.0002101808786392212
-0.00020173192024230957
-0.00019308924674987793
-0.0001844465732574463
-0.0001758188009262085
-0.00016741454601287842
-0.0001592189073562622
-0.00015142560005187988
-0.00014416873455047607
-0.00013741850852966309
-0.00013127923011779785
-0.00012581050395965576
-0.00012108683586120605
-0.00011710822582244873
-0.00011393427848815918
-0.00011150538921356201
-0.00010992586612701416
-0.00010919570922851562
-0.00010922551155090332
-0.00011001527309417725
-0.00011149048805236816
-0.00011345744132995605
-0.00011588633060455322
-0.00011855363845825195
-0.00012136995792388916
-0.00012412667274475098
-0.00012670457363128662
-0.0001290738582611084
-0.00013105571269989014
-0.00013266503810882568
-0.0001339167356491089
-0.00013475120067596436
-0.00013533234596252441
-0.00013560056686401367
-0.00013555586338043213
-0.00013540685176849365
-0.0001351088285446167
-0.00013458728790283203
-0.00013393163681030273
-0.0001331716775894165
-0.0001322627067565918
-0.00013124942779541016
-0.00013008713722229004
-0.00012893974781036377
-0.00012777745723724365
-0.00012663006782531738
-0.00012570619583129883
-0.00012503564357757568
-0.00012473762035369873
-0.00012496113777160645
-0.00012570619583129883
-0.0001272261142730713
-0.00012943148612976074
-0.00013250112533569336
-0.0001363307237625122
-0.00014093518257141113
-0.00014625489711761475
-0.00015211105346679688
-0.00015839934349060059
-0.000149458646774292
-0.00015994906425476074
-0.00016948580741882324
-0.00017811357975006104
-0.00018590688705444336
-0.00019285082817077637
-0.00019912421703338623
-0.00020475685596466064
-0.000209808349609375
-0.00021441280841827393
-0.0002186298370361328
-0.0002224743366241455
-0.0002260953187942505
-0.00022964179515838623
-0.00023318827152252197
-0.00023674964904785156
-0.00024040043354034424
-0.00024427473545074463
-0.0002482384443283081
-0.0002523064613342285
-0.0002562999725341797
-0.0002602040767669678
-0.0002638399600982666
-0.0002671182155609131
-0.0002699047327041626
-0.00027205049991607666
-0.0002735555171966553
-0.00027430057525634766
-0.0002743154764175415
-0.0002734661102294922
-0.00027182698249816895
-0.00026948750019073486
-0.0002662837505340576
-0.0002623051404953003
-0.00025759637355804443
-0.0002521425485610962
-0.00024600327014923096
-0.00023923814296722412
-0.00023180246353149414
-0.00022390484809875488
-0.0002155005931854248
-0.00020678341388702393
-0.00019784271717071533
-0.00018867850303649902
-0.00017948448657989502
-0.0001704394817352295
-0.00016154348850250244
-0.00015291571617126465
-0.00014474987983703613
-0.00013709068298339844
-0.00012999773025512695
-0.00012350082397460938
-0.00011773407459259033
-0.00011262297630310059
-0.00010842084884643555
-0.00010488927364349365
-0.00010231137275695801
-0.00010052323341369629
-9.971857070922852e-05
-9.968876838684082e-05
-0.00010047852993011475
-0.0001020580530166626
-0.0001042783260345459
-0.00010697543621063232
-0.00010995566844940186
-0.00011311471462249756
-0.0001163184642791748
-0.00011931359767913818
-0.00012205541133880615
-0.00012430548667907715
-0.00012621283531188965
-0.00012761354446411133
-0.00012856721878051758
-0.00012916326522827148
-0.0001294165849685669
-0.00012937188148498535
-0.0001291036605834961
-0.00012862682342529297
-0.00012803077697753906
-0.00012724101543426514
-0.00012634694576263428
-0.00012527406215667725
-0.00012411177158355713
-0.0001227855682373047
-0.0001214146614074707
-0.00011990964412689209
-0.00011844933032989502
-0.00011713802814483643
-0.00011594593524932861
-0.00011515617370605469
-0.0001147538423538208
-0.00011494755744934082
-0.00011585652828216553
-0.00011754035949707031
-0.00012014806270599365
-0.0001237243413925171
-0.00012812018394470215
-0.00013346970081329346
-0.00013956427574157715
-0.00014631450176239014
-0.00015635788440704346
-0.00016635656356811523
-0.00017523765563964844
-0.0001831650733947754
-0.0001901388168334961
-0.00019630789756774902
-0.0002018064260482788
-0.0002066195011138916
-0.00021091103553771973
-0.0002146214246749878
-0.0002180337905883789
-0.00022102892398834229
-0.00022397935390472412
-0.00022682547569274902
-0.00022977590560913086
-0.00023292005062103271
-0.0002362281084060669
-0.00023983418941497803
-0.00024370849132537842
-0.0002478361129760742
-0.00025209784507751465
-0.00025625526905059814
-0.00026035308837890625
-0.00026410818099975586
-0.0002674609422683716
-0.00027014315128326416
-0.0002721548080444336
-0.0002734661102294922
-0.0002738535404205322
-0.00027339160442352295
-0.00027191638946533203
-0.00026963651180267334
-0.00026641786098480225
-0.0002623051404953003
-0.00025735795497894287
-0.0002516061067581177
-0.00024506449699401855
-0.0002378225326538086
-0.00022998452186584473
-0.0002215951681137085
-0.0002127140760421753
-0.0002034902572631836
-0.00019402801990509033
-0.00018440186977386475
-0.000174790620803833
-0.0001652836799621582
-0.00015601515769958496
-0.00014702975749969482
-0.00013847649097442627
-0.00013048946857452393
-0.0001230388879776001
-0.0001163184642791748
-0.00011017918586730957
-0.00010482966899871826
-0.00010025501251220703
-9.649991989135742e-05
-9.368360042572021e-05
-9.167194366455078e-05
-9.062886238098145e-05
-9.049475193023682e-05
-9.12398099899292e-05
-9.289383888244629e-05
-9.521842002868652e-05
-9.816884994506836e-05
-0.00010147690773010254
-0.00010506808757781982
-0.00010862946510314941
-0.00011202692985534668
-0.0001150667667388916
-0.00011782348155975342
-0.00011995434761047363
-0.00012156367301940918
-0.0001227259635925293
-0.0001233518123626709
-0.00012362003326416016
-0.00012354552745819092
-0.00012315809726715088
-0.00012262165546417236
-0.00012183189392089844
-0.00012092292308807373
-0.00011989474296569824
-0.00011870265007019043
-0.00011743605136871338
-0.000116005539894104
-0.00011439621448516846
-0.00011274218559265137
-0.00011098384857177734
-0.00010928511619567871
-0.00010773539543151855
-0.00010639429092407227
-0.00010544061660766602
-0.00010499358177185059
-0.00010533630847930908
-0.00010643899440765381
-0.0001084059476852417
-0.00011147558689117432
-0.00011557340621948242
-0.00012068450450897217
-0.00012677907943725586
-0.00013378262519836426
-0.00016254186630249023
-0.00017188489437103271
-0.00018009543418884277
-0.0001872330904006958
-0.0001935213804244995
-0.00019897520542144775
-0.0002037137746810913
-0.00020778179168701172
-0.00021128356456756592
-0.00021429359912872314
-0.00021690130233764648
-0.0002192854881286621
-0.00022149085998535156
-0.00022377073764801025
-0.00022619962692260742
-0.00022886693477630615
-0.00023192167282104492
-0.00023539364337921143
-0.00023926794528961182
-0.00024349987506866455
-0.0002479255199432373
-0.000252455472946167
-0.00025694072246551514
-0.0002612471580505371
-0.0002650618553161621
-0.0002683103084564209
-0.000270843505859375
-0.0002725571393966675
-0.00027333199977874756
-0.00027307868003845215
-0.00027188658714294434
-0.00026966631412506104
-0.0002664029598236084
-0.00026217103004455566
-0.00025700032711029053
-0.000250890851020813
-0.00024405121803283691
-0.00023642182350158691
-0.00022813677787780762
-0.00021930038928985596
-0.00020995736122131348
-0.0002003014087677002
-0.0001904219388961792
-0.00018030405044555664
-0.00017033517360687256
-0.00016041100025177002
-0.00015079975128173828
-0.0001415461301803589
-0.00013272464275360107
-0.00012440979480743408
-0.00011672079563140869
-0.00010962784290313721
-0.00010326504707336426
-9.767711162567139e-05
-9.28044319152832e-05
-8.872151374816895e-05
-8.559226989746094e-05
-8.33272933959961e-05
-8.200109004974365e-05
-8.165836334228516e-05
-8.23289155960083e-05
-8.386373519897461e-05
-8.630752563476562e-05
-8.940696716308594e-05
-9.304285049438477e-05
-9.691715240478516e-05
-0.00010094046592712402
-0.00010482966899871826
-0.00010831654071807861
-0.00011143088340759277
-0.00011393427848815918
-0.00011585652828216553
-0.00011710822582244873
-0.00011789798736572266
-0.00011812150478363037
-0.00011801719665527344
-0.00011757016181945801
-0.00011688470840454102
-0.00011602044105529785
-0.00011500716209411621
-0.00011385977268218994
-0.00011257827281951904
-0.00011113286018371582
-0.00010955333709716797
-0.00010789930820465088
-0.00010605156421661377
-0.00010412931442260742
-0.00010217726230621338
-0.00010026991367340088
-9.85562801361084e-05
-9.708106517791748e-05
-9.612739086151123e-05
-9.576976299285889e-05
-9.620189666748047e-05
-9.75579023361206e-05
-0.00010000169277191162
-0.00010353326797485352
-0.00010830163955688477
-0.00011426210403442383
-0.00012125074863433838
-0.0001679062843322754
-0.0001764744520187378
-0.00018402934074401855
-0.00019054114818572998
-0.0001961439847946167
-0.0002008974552154541
-0.00020490586757659912
-0.00020831823348999023
-0.00021117925643920898
-0.00021348893642425537
-0.00021548569202423096
-0.00021722912788391113
-0.00021889805793762207
-0.00022067129611968994
-0.00022265315055847168
-0.00022496283054351807
-0.00022777915000915527
-0.00023111701011657715
-0.000234946608543396
-0.00023926794528961182
-0.00024399161338806152
-0.0002488046884536743
-0.00025372207164764404
-0.00025844573974609375
-0.00026276707649230957
-0.00026650726795196533
-0.0002694427967071533
-0.0002715885639190674
-0.00027267634868621826
-0.0002727508544921875
-0.0002716332674026489
-0.000269472599029541
-0.00026619434356689453
-0.00026182830333709717
-0.0002564936876296997
-0.00025013089179992676
-0.0002429187297821045
-0.00023493170738220215
-0.00022621452808380127
-0.00021697580814361572
-0.00020729005336761475
-0.00019721686840057373
-0.00018690526485443115
-0.0001765042543411255
-0.00016611814498901367
-0.00015592575073242188
-0.00014600157737731934
-0.000136449933052063
-0.00012740492820739746
-0.00011892616748809814
-0.00011095404624938965
-0.00010371208190917969
-9.717047214508057e-05
-9.118020534515381e-05
-8.605420589447021e-05
-8.165836334228516e-05
-7.812678813934326e-05
-7.556378841400146e-05
-7.390975952148438e-05
-7.325410842895508e-05
-7.367134094238281e-05
-7.511675357818604e-05
-7.751584053039551e-05
-8.071959018707275e-05
-8.456408977508545e-05
-8.879601955413818e-05
-9.316205978393555e-05
-9.748339653015137e-05
-0.00010147690773010254
-0.00010497868061065674
-0.00010788440704345703
-0.00011011958122253418
-0.00011166930198669434
-0.00011251866817474365
-0.000112876296043396
-0.00011275708675384521
-0.00011226534843444824
-0.00011146068572998047
-0.00011047720909118652
-0.0001093447208404541
-0.00010803341865539551
-0.00010669231414794922
-0.0001051872968673706
-0.00010354816913604736
-0.0001017451286315918
-9.986758232116699e-05
-9.782612323760986e-05
-9.57101583480835e-05
-9.351968765258789e-05
-9.150803089141846e-05
-8.970499038696289e-05
-8.822977542877197e-05
-8.729100227355957e-05
-8.705258369445801e-05
-8.779764175415039e-05
-8.952617645263672e-05
-9.246170520782471e-05
-9.66787338256836e-05
-0.00010225176811218262
-0.00010910630226135254
-0.00017240643501281738
-0.0001802891492843628
-0.0001871734857559204
-0.00019305944442749023
-0.00019797682762145996
-0.00020219385623931885
-0.00020560622215270996
-0.0002084672451019287
-0.0002107173204421997
-0.00021247565746307373
-0.00021392107009887695
-0.00021508336067199707
-0.00021629035472869873
-0.00021758675575256348
-0.00021918118000030518
-0.00022120773792266846
-0.00022380053997039795
-0.00022704899311065674
-0.00023090839385986328
-0.00023540854454040527
-0.0002402663230895996
-0.00024549663066864014
-0.0002507120370864868
-0.00025585293769836426
-0.0002605319023132324
-0.000264778733253479
-0.0002681463956832886
-0.00027054548263549805
-0.0002720355987548828
-0.000272214412689209
-0.0002713054418563843
-0.00026914477348327637
-0.0002657771110534668
-0.00026129186153411865
-0.0002557039260864258
-0.00024913251399993896
-0.0002416372299194336
-0.0002333223819732666
-0.00022429227828979492
-0.00021471083164215088
-0.00020460784435272217
-0.00019419193267822266
-0.00018349289894104004
-0.00017282366752624512
-0.00016213953495025635
-0.00015169382095336914
-0.0001415461301803589
-0.00013183057308197021
-0.00012262165546417236
-0.00011393427848815918
-0.00010593235492706299
-9.848177433013916e-05
-9.167194366455078e-05
-8.553266525268555e-05
-8.004903793334961e-05
-7.538497447967529e-05
-7.143616676330566e-05
-6.83814287185669e-05
-6.636977195739746e-05
-6.534159183502197e-05
-6.541609764099121e-05
-6.659328937530518e-05
-6.882846355438232e-05
-7.195770740509033e-05
-7.590651512145996e-05
-8.04215669631958e-05
-8.511543273925781e-05
-8.991360664367676e-05
-9.435415267944336e-05
-9.836256504058838e-05
-0.0001016855239868164
-0.00010432302951812744
-0.0001061856746673584
-0.00010733306407928467
-0.00010780990123748779
-0.00010767579078674316
-0.00010716915130615234
-0.00010626018047332764
-0.00010517239570617676
-0.00010389089584350586
-0.00010249018669128418
-0.00010101497173309326
-9.943544864654541e-05
-9.779632091522217e-05
-9.59634780883789e-05
-9.401142597198486e-05
-9.192526340484619e-05
-8.973479270935059e-05
-8.749961853027344e-05
-8.526444435119629e-05
-8.311867713928223e-05
-8.128583431243896e-05
-7.987022399902344e-05
-7.903575897216797e-05
-7.912516593933105e-05
-8.022785186767578e-05
-8.246302604675293e-05
-8.606910705566406e-05
-9.107589721679688e-05
-9.75579023361206e-05
-0.00017617642879486084
-0.0001833885908126831
-0.00018961727619171143
-0.00019484758377075195
-0.000199243426322937
-0.00020292401313781738
-0.0002059340476989746
-0.00020825862884521484
-0.00021003186702728271
-0.000211372971534729
-0.00021229684352874756
-0.00021311640739440918
-0.00021383166313171387
-0.00021474063396453857
-0.00021596252918243408
-0.0002177506685256958
-0.00022011995315551758
-0.00022335350513458252
-0.00022724270820617676
-0.0002317577600479126
-0.0002368837594985962
-0.00024232268333435059
-0.00024788081645965576
-0.00025340914726257324
-0.00025856494903564453
-0.00026310980319976807
-0.0002668797969818115
-0.00026963651180267334
-0.0002712458372116089
-0.0002716332674026489
-0.00027076900005340576
-0.0002686232328414917
-0.0002651810646057129
-0.0002605617046356201
-0.00025482475757598877
-0.00024802982807159424
-0.00024019181728363037
-0.00023162364959716797
-0.00022232532501220703
-0.00021235644817352295
-0.00020200014114379883
-0.00019122660160064697
-0.0001803189516067505
-0.0001693516969680786
-0.00015842914581298828