# vtk DataFile Version 3.0
2D PINN Solution
ASCII
DATASET STRUCTURED_GRID
DIMENSIONS 100 100 1
POINTS 10000 float
-1.0 -1.0 0.0
-0.9797979797979798 -1.0 0.0
-0.9595959595959596 -1.0 0.0
-0.9393939393939394 -1.0 0.0
-0.9191919191919192 -1.0 0.0
-0.898989898989899 -1.0 0.0
-0.8787878787878788 -1.0 0.0
-0.8585858585858586 -1.0 0.0
-0.8383838383838383 -1.0 0.0
-0.8181818181818181 -1.0 0.0
-0.797979797979798 -1.0 0.0
-0.7777777777777778 -1.0 0.0
-0.7575757575757576 -1.0 0.0
-0.7373737373737373 -1.0 0.0
-0.7171717171717171 -1.0 0.0
-0.696969696969697 -1.0 0.0
-0.6767676767676767 -1.0 0.0
-0.6565656565656566 -1.0 0.0
-0.6363636363636364 -1.0 0.0
-0.6161616161616161 -1.0 0.0
-0.5959595959595959 -1.0 0.0
-0.5757575757575757 -1.0 0.0
-0.5555555555555556 -1.0 0.0
-0.5353535353535352 -1.0 0.0
-0.5151515151515151 -1.0 0.0
-0.4949494949494949 -1.0 0.0
-0.4747474747474747 -1.0 0.0
-0.4545454545454545 -1.0 0.0
-0.43434343434343425 -1.0 0.0
-0.41414141414141414 -1.0 0.0
-0.3939393939393939 -1.0 0.0
-0.3737373737373737 -1.0 0.0
-0.3535353535353535 -1.0 0.0
-0.33333333333333326 -1.0 0.0
-0.31313131313131304 -1.0 0.0
-0.2929292929292928 -1.0 0.0
-0.2727272727272727 -1.0 0.0
-0.2525252525252525 -1.0 0.0
-0.23232323232323226 -1.0 0.0
-0.21212121212121204 -1.0 0.0
-0.19191919191919182 -1.0 0.0
-0.1717171717171716 -1.0 0.0
-0.1515151515151515 -1.0 0.0
-0.13131313131313127 -1.0 0.0
-0.11111111111111105 -1.0 0.0
-0.09090909090909083 -1.0 0.0
-0.07070707070707061 -1.0 0.0
-0.050505050505050386 -1.0 0.0
-0.030303030303030276 -1.0 0.0
-0.010101010101010055 -1.0 0.0
0.010101010101010166 -1.0 0.0
0.030303030303030498 -1.0 0.0
0.05050505050505061 -1.0 0.0
0.07070707070707072 -1.0 0.0
0.09090909090909105 -1.0 0.0
0.11111111111111116 -1.0 0.0
0.1313131313131315 -1.0 0.0
0.1515151515151516 -1.0 0.0
0.1717171717171717 -1.0 0.0
0.19191919191919204 -1.0 0.0
0.21212121212121215 -1.0 0.0
0.2323232323232325 -1.0 0.0
0.2525252525252526 -1.0 0.0
0.27272727272727293 -1.0 0.0
0.29292929292929304 -1.0 0.0
0.31313131313131315 -1.0 0.0
0.3333333333333335 -1.0 0.0
0.3535353535353536 -1.0 0.0
0.3737373737373739 -1.0 0.0
0.39393939393939403 -1.0 0.0
0.41414141414141437 -1.0 0.0
0.4343434343434345 -1.0 0.0
0.4545454545454546 -1.0 0.0
0.4747474747474749 -1.0 0.0
0.49494949494949503 -1.0 0.0
0.5151515151515154 -1.0 0.0
0.5353535353535355 -1.0 0.0
0.5555555555555556 -1.0 0.0
0.5757575757575759 -1.0 0.0
0.595959595959596 -1.0 0.0
0.6161616161616164 -1.0 0.0
0.6363636363636365 -1.0 0.0
0.6565656565656568 -1.0 0.0
0.6767676767676769 -1.0 0.0
0.696969696969697 -1.0 0.0
0.7171717171717173 -1.0 0.0
0.7373737373737375 -1.0 0.0
0.7575757575757578 -1.0 0.0
0.7777777777777779 -1.0 0.0
0.7979797979797982 -1.0 0.0
0.8181818181818183 -1.0 0.0
0.8383838383838385 -1.0 0.0
0.8585858585858588 -1.0 0.0
0.8787878787878789 -1.0 0.0
0.8989898989898992 -1.0 0.0
0.9191919191919193 -1.0 0.0
0.9393939393939394 -1.0 0.0
0.9595959595959598 -1.0 0.0
0.9797979797979799 -1.0 0.0
1.0 -1.0 0.0
-1.0 -0.9797979797979798 0.0
-0.9797979797979798 -0.9797979797979798 0.0
-0.9595959595959596 -0.9797979797979798 0.0
-0.9393939393939394 -0.9797979797979798 0.0
-0.9191919191919192 -0.9797979797979798 0.0
-0.898989898989899 -0.9797979797979798 0.0
-0.8787878787878788 -0.9797979797979798 0.0
-0.8585858585858586 -0.9797979797979798 0.0
-0.8383838383838383 -0.9797979797979798 0.0
-0.8181818181818181 -0.9797979797979798 0.0
-0.797979797979798 -0.9797979797979798 0.0
-0.7777777777777778 -0.9797979797979798 0.0
-0.7575757575757576 -0.9797979797979798 0.0
-0.7373737373737373 -0.9797979797979798 0.0
-0.7171717171717171 -0.9797979797979798 0.0
-0.696969696969697 -0.9797979797979798 0.0
-0.6767676767676767 -0.9797979797979798 0.0
-0.6565656565656566 -0.9797979797979798 0.0
-0.6363636363636364 -0.9797979797979798 0.0
-0.6161616161616161 -0.9797979797979798 0.0
-0.5959595959595959 -0.9797979797979798 0.0
-0.5757575757575757 -0.9797979797979798 0.0
-0.5555555555555556 -0.9797979797979798 0.0
-0.5353535353535352 -0.9797979797979798 0.0
-0.5151515151515151 -0.9797979797979798 0.0
-0.4949494949494949 -0.9797979797979798 0.0
-0.4747474747474747 -0.9797979797979798 0.0
-0.4545454545454545 -0.9797979797979798 0.0
-0.43434343434343425 -0.9797979797979798 0.0
-0.41414141414141414 -0.9797979797979798 0.0
-0.3939393939393939 -0.9797979797979798 0.0
-0.3737373737373737 -0.9797979797979798 0.0
-0.3535353535353535 -0.9797979797979798 0.0
-0.33333333333333326 -0.9797979797979798 0.0
-0.31313131313131304 -0.9797979797979798 0.0
-0.2929292929292928 -0.9797979797979798 0.0
-0.2727272727272727 -0.9797979797979798 0.0
-0.2525252525252525 -0.9797979797979798 0.0
-0.23232323232323226 -0.9797979797979798 0.0
-0.21212121212121204 -0.9797979797979798 0.0
-0.19191919191919182 -0.9797979797979798 0.0
-0.1717171717171716 -0.9797979797979798 0.0
-0.1515151515151515 -0.9797979797979798 0.0
-0.13131313131313127 -0.9797979797979798 0.0
-0.11111111111111105 -0.9797979797979798 0.0
-0.09090909090909083 -0.9797979797979798 0.0
-0.07070707070707061 -0.9797979797979798 0.0
-0.050505050505050386 -0.9797979797979798 0.0
-0.030303030303030276 -0.9797979797979798 0.0
-0.010101010101010055 -0.9797979797979798 0.0
0.010101010101010166 -0.9797979797979798 0.0
0.030303030303030498 -0.9797979797979798 0.0
0.05050505050505061 -0.9797979797979798 0.0
0.07070707070707072 -0.9797979797979798 0.0
0.09090909090909105 -0.9797979797979798 0.0
0.11111111111111116 -0.9797979797979798 0.0
0.1313131313131315 -0.9797979797979798 0.0
0.1515151515151516 -0.9797979797979798 0.0
0.1717171717171717 -0.9797979797979798 0.0
0.19191919191919204 -0.9797979797979798 0.0
0.21212121212121215 -0.9797979797979798 0.0
0.2323232323232325 -0.9797979797979798 0.0
0.2525252525252526 -0.9797979797979798 0.0
0.27272727272727293 -0.9797979797979798 0.0
0.29292929292929304 -0.9797979797979798 0.0
0.31313131313131315 -0.9797979797979798 0.0
0.3333333333333335 -0.9797979797979798 0.0
0.3535353535353536 -0.9797979797979798 0.0
0.3737373737373739 -0.9797979797979798 0.0
0.39393939393939403 -0.9797979797979798 0.0
0.41414141414141437 -0.9797979797979798 0.0
0.4343434343434345 -0.9797979797979798 0.0
0.4545454545454546 -0.9797979797979798 0.0
0.4747474747474749 -0.9797979797979798 0.0
0.49494949494949503 -0.9797979797979798 0.0
0.5151515151515154 -0.9797979797979798 0.0
0.5353535353535355 -0.9797979797979798 0.0
0.5555555555555556 -0.9797979797979798 0.0
0.5757575757575759 -0.9797979797979798 0.0
0.595959595959596 -0.9797979797979798 0.0
0.6161616161616164 -0.9797979797979798 0.0
0.6363636363636365 -0.9797979797979798 0.0
0.6565656565656568 -0.9797979797979798 0.0
0.6767676767676769 -0.9797979797979798 0.0
0.696969696969697 -0.9797979797979798 0.0
0.7171717171717173 -0.9797979797979798 0.0
0.7373737373737375 -0.9797979797979798 0.0
0.7575757575757578 -0.9797979797979798 0.0
0.7777777777777779 -0.9797979797979798 0.0
0.7979797979797982 -0.9797979797979798 0.0
0.8181818181818183 -0.9797979797979798 0.0
0.8383838383838385 -0.9797979797979798 0.0
0.8585858585858588 -0.9797979797979798 0.0
0.8787878787878789 -0.9797979797979798 0.0
0.8989898989898992 -0.9797979797979798 0.0
0.9191919191919193 -0.9797979797979798 0.0
0.9393939393939394 -0.9797979797979798 0.0
0.9595959595959598 -0.9797979797979798 0.0
0.9797979797979799 -0.9797979797979798 0.0
1.0 -0.9797979797979798 0.0
-1.0 -0.9595959595959596 0.0
-0.9797979797979798 -0.9595959595959596 0.0
-0.9595959595959596 -0.9595959595959596 0.0
-0.9393939393939394 -0.9595959595959596 0.0
-0.9191919191919192 -0.9595959595959596 0.0
-0.898989898989899 -0.9595959595959596 0.0
-0.8787878787878788 -0.9595959595959596 0.0
-0.8585858585858586 -0.9595959595959596 0.0
-0.8383838383838383 -0.9595959595959596 0.0
-0.8181818181818181 -0.9595959595959596 0.0
-0.797979797979798 -0.9595959595959596 0.0
-0.7777777777777778 -0.9595959595959596 0.0
-0.7575757575757576 -0.9595959595959596 0.0
-0.7373737373737373 -0.9595959595959596 0.0
-0.7171717171717171 -0.9595959595959596 0.0
-0.696969696969697 -0.9595959595959596 0.0
-0.6767676767676767 -0.9595959595959596 0.0
-0.6565656565656566 -0.9595959595959596 0.0
-0.6363636363636364 -0.9595959595959596 0.0
-0.6161616161616161 -0.9595959595959596 0.0
-0.5959595959595959 -0.9595959595959596 0.0
-0.5757575757575757 -0.9595959595959596 0.0
-0.5555555555555556 -0.9595959595959596 0.0
-0.5353535353535352 -0.9595959595959596 0.0
-0.5151515151515151 -0.9595959595959596 0.0
-0.4949494949494949 -0.9595959595959596 0.0
-0.4747474747474747 -0.9595959595959596 0.0
-0.4545454545454545 -0.9595959595959596 0.0
-0.43434343434343425 -0.9595959595959596 0.0
-0.41414141414141414 -0.9595959595959596 0.0
-0.3939393939393939 -0.9595959595959596 0.0
-0.3737373737373737 -0.9595959595959596 0.0
-0.3535353535353535 -0.9595959595959596 0.0
-0.33333333333333326 -0.9595959595959596 0.0
-0.31313131313131304 -0.9595959595959596 0.0
-0.2929292929292928 -0.9595959595959596 0.0
-0.2727272727272727 -0.9595959595959596 0.0
-0.2525252525252525 -0.9595959595959596 0.0
-0.23232323232323226 -0.9595959595959596 0.0
-0.21212121212121204 -0.9595959595959596 0.0
-0.19191919191919182 -0.9595959595959596 0.0
-0.1717171717171716 -0.9595959595959596 0.0
-0.1515151515151515 -0.9595959595959596 0.0
-0.13131313131313127 -0.9595959595959596 0.0
-0.11111111111111105 -0.9595959595959596 0.0
-0.09090909090909083 -0.9595959595959596 0.0
-0.07070707070707061 -0.9595959595959596 0.0
-0.050505050505050386 -0.9595959595959596 0.0
-0.030303030303030276 -0.9595959595959596 0.0
-0.010101010101010055 -0.9595959595959596 0.0
0.010101010101010166 -0.9595959595959596 0.0
0.030303030303030498 -0.9595959595959596 0.0
0.05050505050505061 -0.9595959595959596 0.0
0.07070707070707072 -0.9595959595959596 0.0
0.09090909090909105 -0.9595959595959596 0.0
0.11111111111111116 -0.9595959595959596 0.0
0.1313131313131315 -0.9595959595959596 0.0
0.1515151515151516 -0.9595959595959596 0.0
0.1717171717171717 -0.9595959595959596 0.0
0.19191919191919204 -0.9595959595959596 0.0
0.21212121212121215 -0.9595959595959596 0.0
[...]
POINT_DATA 10000
SCALARS u float 1
LOOKUP_TABLE default
-0.00012573599815368652
-0.00013786554336547852
-0.00014959275722503662
-0.00016088783740997314
-0.00017161667346954346
-0.00018163025379180908
-0.00019086897373199463
-0.0001992732286453247
-0.00020672380924224854
-0.00021319091320037842
-0.00021880865097045898
-0.0002235621213912964
-0.0002276599407196045
-0.0002311915159225464
-0.00023436546325683594
-0.00023728609085083008
-0.00024014711380004883
-0.00024302303791046143
-0.000245898962020874
-0.00024884939193725586
-0.0002518296241760254
-0.0002547353506088257
-0.0002574026584625244
-0.0002598315477371216
-0.000261843204498291
-0.0002634674310684204
-0.0002645552158355713
-0.00026513636112213135
-0.00026522576808929443
-0.00026491284370422363
-0.0002642124891281128
-0.0002633035182952881
-0.0002621114253997803
-0.0002607107162475586
-0.0002589374780654907
-0.00025694072246551514
-0.0002545267343521118
-0.0002516508102416992
-0.00024819374084472656
-0.0002441108226776123
-0.00023926794528961182
-0.00023370981216430664
-0.00022739171981811523
-0.00022047758102416992
-0.0002129077911376953
-0.00020490586757659912
-0.0001967102289199829
-0.00018830597400665283
-0.0001801997423171997
-0.00017240643501281738
-0.00016519427299499512
-0.000158652663230896
-0.00015304982662200928
-0.00014832615852355957
-0.00014460086822509766
-0.00014194846153259277
-0.0001402348279953003
-0.0001395195722579956
-0.00013962388038635254
-0.00014059245586395264
-0.00014224648475646973
-0.00014448165893554688
-0.00014713406562805176
-0.00015014410018920898
-0.00015328824520111084
-0.00015658140182495117
-0.0001598149538040161
-0.0001628100872039795
-0.00016567111015319824
-0.0001681894063949585
-0.0001703500747680664
-0.00017215311527252197
-0.0001735687255859375
-0.00017461180686950684
-0.00017535686492919922
-0.00017568469047546387
-0.0001757293939590454
-0.0001755356788635254
-0.00017505884170532227
-0.00017435848712921143
-0.0001735389232635498
-0.00017258524894714355
-0.00017155706882476807
-0.00017054378986358643
-0.00016963481903076172
-0.00016893446445465088
-0.0001684129238128662
-0.00016830861568450928
-0.00016865134239196777
-0.0001694411039352417
-0.00017073750495910645
-0.0001725703477859497
-0.00017489492893218994
-0.00017768144607543945
-0.0001807957887649536
-0.00018426775932312012
-0.00018775463104248047
-0.00019128620624542236
-0.00019465386867523193
-0.00019758939743041992
-0.00013287365436553955
-0.00014457106590270996
-0.00015570223331451416
-0.0001662224531173706
-0.0001760423183441162
-0.00018523633480072021
-0.00019344687461853027
-0.00020091235637664795
-0.00020746886730194092
-0.0002130568027496338
-0.00021792948246002197
-0.00022192299365997314
-0.0002253204584121704
-0.0002282559871673584
-0.00023092329502105713
-0.00023342669010162354
-0.00023609399795532227
-0.0002388209104537964
-0.00024172663688659668
-0.000244826078414917
-0.0002480447292327881
-0.0002513676881790161
-0.00025463104248046875
-0.00025773048400878906
-0.0002604573965072632
-0.00026288628578186035
-0.000264778733253479
-0.00026607513427734375
-0.00026683509349823
-0.00026710331439971924
-0.0002668648958206177
-0.000266149640083313
-0.0002650618553161621
-0.0002634674310684204
-0.00026154518127441406
-0.0002590268850326538
-0.0002561211585998535
-0.0002525597810745239
-0.00024840235710144043
-0.0002435445785522461
-0.0002378523349761963
-0.00023140013217926025
-0.00022426247596740723
-0.00021648406982421875
-0.00020809471607208252
-0.0001992732286453247
-0.0001903325319290161
-0.00018130242824554443
-0.000172540545463562
-0.00016425549983978271
-0.00015655159950256348
-0.00014966726303100586
-0.0001436769962310791
-0.00013874471187591553
-0.00013494491577148438
-0.00013209879398345947
-0.00013040006160736084
-0.00012971460819244385
-0.00012996792793273926
-0.00013105571269989014
-0.00013287365436553955
-0.0001353621482849121
-0.0001383572816848755
-0.00014168024063110352
-0.00014522671699523926
-0.0001488327980041504
-0.00015242397785186768
-0.0001557767391204834
-0.00015895068645477295
-0.0001617521047592163
-0.00016416609287261963
-0.00016613304615020752
-0.00016771256923675537
-0.00016883015632629395
-0.00016954541206359863
-0.00016990303993225098
-0.00016988813877105713
-0.00016953051090240479
-0.00016891956329345703
-0.00016811490058898926
-0.00016701221466064453
-0.00016576051712036133
-0.00016444921493530273
-0.0001631230115890503
-0.00016182661056518555
-0.00016066431999206543
-0.00015974044799804688
-0.00015923380851745605
-0.00015911459922790527
-0.000159531831741333
-0.00016048550605773926
-0.00016216933727264404
-0.00016447901725769043
-0.00016734004020690918
-0.00017076730728149414
-0.00017464160919189453
-0.00017884373664855957
-0.00018317997455596924
-0.0001875162124633789
-0.000191614031791687
-0.00013950467109680176
-0.00015060603618621826
-0.00016106665134429932
-0.00017079710960388184
-0.00017967820167541504
-0.0001879483461380005
-0.00019527971744537354
-0.0002018362283706665
-0.00020743906497955322
-0.00021232664585113525
-0.00021637976169586182
-0.00021976232528686523
-0.0002225339412689209
-0.00022502243518829346
-0.0002272874116897583
-0.000229567289352417
-0.000232011079788208
-0.0002346634864807129
-0.00023764371871948242
-0.00024090707302093506
-0.00024452805519104004
-0.00024822354316711426
-0.00025206804275512695
-0.0002557039260864258
-0.00025920569896698
-0.00026223063468933105
-0.00026485323905944824
-0.00026689469814300537
-0.00026820600032806396
-0.0002689361572265625
-0.0002689957618713379
-0.0002685338258743286
-0.0002673715353012085
-0.00026573240756988525
-0.0002634376287460327
-0.00026057660579681396
-0.00025710463523864746
-0.0002529621124267578
-0.0002480447292327881
-0.00024238228797912598
-0.00023597478866577148
-0.00022877752780914307
-0.00022086501121520996
-0.0002122819423675537
-0.0002031475305557251
-0.00019365549087524414
-0.0001840442419052124
-0.00017437338829040527
-0.0001650303602218628
-0.00015620887279510498
-0.000148087739944458
-0.00014084577560424805
-0.00013457238674163818
-0.0001293867826461792
-0.00012542307376861572
-0.00012253224849700928
-0.00012080371379852295
-0.00012008845806121826
-0.00012040138244628906
-0.00012160837650299072
-0.00012362003326416016
-0.00012633204460144043
-0.00012953579425811768
-0.00013312697410583496
-0.00013700127601623535
-0.00014096498489379883
-0.0001448988914489746
-0.00014865398406982422
-0.0001521855592727661
-0.00015525519847869873
-0.00015792250633239746
-0.00016012787818908691
-0.00016185641288757324
-0.0001630932092666626
-0.00016386806964874268
-0.00016418099403381348
-0.00016407668590545654
-0.00016370415687561035
-0.00016297399997711182
-0.00016196072101593018
-0.00016066431999206543
-0.00015920400619506836
-0.0001575946807861328
-0.00015591084957122803
-0.0001542419195175171
-0.0001526474952697754
-0.0001513361930847168
-0.00015024840831756592
-0.00014966726303100586
-0.00014962255954742432
-0.00015021860599517822
-0.00015150010585784912
-0.00015357136726379395
-0.0001564323902130127
-0.00015991926193237305
-0.0001640915870666504
-0.0001687854528427124
-0.0001738518476486206
-0.00017905235290527344
-0.00018423795700073242
-0.0001455247402191162
-0.00015592575073242188
-0.00016561150550842285
-0.00017449259757995605
-0.00018259882926940918
-0.00018988549709320068
-0.00019635260105133057
-0.0002021193504333496
-0.00020703673362731934
-0.0002111494541168213
-0.00021454691886901855
-0.00021731853485107422
-0.00021964311599731445
-0.00022169947624206543
-0.00022359192371368408
-0.0002256929874420166
-0.00022798776626586914
-0.00023065507411956787
-0.00023378431797027588
-0.00023727118968963623
-0.00024117529392242432
-0.0002453327178955078
-0.00024962425231933594
-0.00025394558906555176
-0.0002579689025878906
-0.000261649489402771
-0.00026488304138183594
-0.00026744604110717773
-0.00026932358741760254
-0.00027045607566833496
-0.00027079880237579346
-0.0002704411745071411
-0.0002693086862564087
-0.0002674311399459839
-0.0002648383378982544
-0.00026157498359680176
-0.00025756657123565674
-0.0002527981996536255
-0.00024725496768951416
-0.00024093687534332275
-0.00023384392261505127
-0.00022602081298828125
-0.0002173781394958496
-0.00020799040794372559
-0.00019825994968414307
-0.0001881122589111328
-0.00017786026000976562
-0.00016760826110839844
-0.00015781819820404053
-0.0001484900712966919
-0.00013996660709381104
-0.00013239681720733643
-0.0001259148120880127
-0.00012055039405822754
-0.0001163780689239502
-0.00011333823204040527
-0.00011153519153594971
-0.00011081993579864502
-0.00011113286018371582
-0.00011232495307922363
-0.0001144111156463623
-0.00011725723743438721
-0.00012060999870300293
-0.00012445449829101562
-0.00012861192226409912
-0.00013287365436553955
-0.00013713538646697998
-0.00014126300811767578
-0.00014503300189971924
-0.0001485198736190796
-0.00015144050121307373
-0.00015395879745483398
-0.00015588104724884033
-0.00015720725059509277
-0.00015807151794433594
-0.00015847384929656982
-0.00015842914581298828
-0.0001579374074935913
-0.0001570582389831543
-0.00015592575073242188
-0.00015448033809661865
-0.0001529008150100708
-0.00015103816986083984
-0.0001490265130996704
-0.00014701485633850098
-0.00014503300189971924
-0.00014318525791168213
-0.0001417100429534912
-0.0001405179500579834
-0.0001399517059326172
-0.00013999640941619873
-0.00014087557792663574
-0.00014252960681915283
-0.00014510750770568848
-0.0001485198736190796
-0.0001528412103652954
-0.00015784800052642822
-0.00016345083713531494
-0.00016942620277404785
-0.00017559528350830078
-0.00015085935592651367
-0.00016057491302490234
-0.000169411301612854
-0.00017748773097991943
-0.00018474459648132324
-0.00019121170043945312
-0.00019694864749908447
-0.0002019256353378296
-0.00020612776279449463
-0.00020959973335266113
-0.00021241605281829834
-0.00021474063396453857
-0.00021661818027496338
-0.00021836161613464355
-0.00022010505199432373
-0.0002219676971435547
-0.00022421777248382568
-0.0002269148826599121
-0.0002301633358001709
-0.00023393332958221436
-0.00023815035820007324
-0.00024273991584777832
-0.00024746358394622803
-0.0002522468566894531
-0.0002568364143371582
-0.000261157751083374
-0.0002648681402206421
-0.0002679675817489624
-0.0002702474594116211
-0.00027167797088623047
-0.00027222931385040283
-0.00027185678482055664
-0.000270649790763855
-0.0002686530351638794
-0.0002657771110534668
-0.0002620816230773926
-0.00025753676891326904
-0.0002522766590118408
-0.00024618208408355713
-0.00023922324180603027
-0.0002314746379852295
-0.00022292137145996094
-0.0002136826515197754
-0.000203743577003479
-0.0001933574676513672
-0.00018262863159179688
-0.00017186999320983887
-0.0001611858606338501
-0.0001509338617324829
-0.00014121830463409424
-0.00013236701488494873
-0.00012451410293579102
-0.00011773407459259033
-0.00011217594146728516
-0.00010785460472106934
-0.00010471045970916748
-0.00010280311107635498
-0.00010199844837188721
-0.00010213255882263184
-0.00010339915752410889
-0.00010542571544647217
-0.00010822713375091553
-0.00011171400547027588
-0.00011564791202545166
-0.00011998414993286133
-0.00012440979480743408
-0.0001289844512939453
-0.00013343989849090576
-0.0001375824213027954
-0.0001413971185684204
-0.00014469027519226074
-0.00014741718769073486
-0.00014957785606384277
-0.00015115737915039062
-0.0001521855592727661
-0.0001526474952697754
-0.00015263259410858154
-0.00015215575695037842
-0.0001512467861175537
-0.00015006959438323975
-0.0001485198736190796
-0.00014667212963104248
-0.0001446455717086792
-0.00014241039752960205
-0.0001401454210281372
-0.00013777613639831543
-0.00013558566570281982
-0.000133514404296875
-0.00013190507888793945
-0.0001306980848312378
-0.00013020634651184082
-0.00013044476509094238
-0.00013162195682525635
-0.0001337677240371704
-0.00013700127601623535
-0.0001411736011505127
-0.0001462697982788086
-0.0001522451639175415
-0.00015884637832641602
-0.00016586482524871826
-0.000155523419380188
-0.00016447901725769043
-0.0001725703477859497
-0.00017981231212615967
-0.0001862943172454834
-0.00019200146198272705
-0.00019703805446624756
-0.00020134449005126953
-0.00020493566989898682
-0.00020785629749298096
-0.0002102106809616089
-0.00021214783191680908
-0.00021375715732574463
-0.000215187668800354
-0.0002167224884033203
-0.00021848082542419434
-0.00022071599960327148
-0.0002235323190689087
-0.00022685527801513672
-0.0002308487892150879
-0.00023536384105682373
-0.000240325927734375
-0.000245511531829834
-0.00025078654289245605
-0.0002559274435043335
-0.00026063621044158936
-0.0002649277448654175
-0.000268399715423584
-0.00027102231979370117
-0.00027267634868621826
-0.0002734065055847168
-0.00027310848236083984
-0.00027176737785339355
-0.00026945769786834717
-0.00026632845401763916
-0.00026217103004455566
-0.00025716423988342285
-0.00025141239166259766
-0.00024469196796417236
-0.0002372264862060547
-0.0002288818359375
-0.00021983683109283447
-0.00020997226238250732
-0.0001995563507080078
-0.00018869340419769287
-0.00017747282981872559
-0.0001662522554397583
-0.0001551210880279541
-0.00014451146125793457
-0.0001345127820968628
-0.0001253187656402588
-0.00011719763278961182
-0.00011025369167327881
-0.00010454654693603516
-0.00010001659393310547
-9.670853614807129e-05
-9.457767009735107e-05
-9.360909461975098e-05
-9.362399578094482e-05
-9.468197822570801e-05
-9.66191291809082e-05
-9.930133819580078e-05
-0.00010275840759277344
-0.00010666251182556152
-0.00011107325553894043
-0.0001157224178314209
-0.00012041628360748291
-0.00012512505054473877
-0.00012956559658050537
-0.00013369321823120117
-0.00013734400272369385
-0.00014044344425201416
-0.00014287233352661133
-0.0001447051763534546
-0.00014594197273254395
-0.00014656782150268555
-0.00014662742614746094
-0.0001462399959564209
-0.00014537572860717773
-0.00014413893222808838
-0.00014252960681915283
-0.00014065206050872803
-0.00013849139213562012
-0.00013612210750579834
-0.00013355910778045654
-0.00013099610805511475
-0.0001284182071685791
-0.00012600421905517578
-0.00012379884719848633
-0.0001220703125
-0.00012095272541046143
-0.00012056529521942139
-0.00012111663818359375
-0.0001227259635925293
-0.00012546777725219727
-0.00012937188148498535
-0.00013443827629089355
-0.0001405477523803711
-0.00014750659465789795
-0.00015524029731750488
-0.00015951693058013916
-0.00016771256923675537
-0.00017499923706054688
-0.000181540846824646
-0.00018727779388427734
-0.000192299485206604
-0.00019672513008117676
-0.00020048022270202637
-0.00020356476306915283
-0.00020608305931091309
-0.00020809471607208252
-0.00020971894264221191
-0.0002110004425048828
-0.00021223723888397217
-0.00021363794803619385
-0.00021532177925109863
-0.00021757185459136963
-0.00022038817405700684
-0.00022393465042114258
-0.00022815167903900146
-0.00023293495178222656
-0.00023823976516723633
-0.00024381279945373535
-0.00024956464767456055
-0.00025506317615509033
-0.00026026368141174316
-0.0002649277448654175
-0.00026875734329223633
-0.0002716481685638428
-0.0002735406160354614
-0.0002743154764175415
-0.0002739131450653076
-0.0002725273370742798
-0.0002699941396713257
-0.0002664327621459961
-0.00026191771030426025
-0.00025647878646850586
-0.00025016069412231445
-0.00024297833442687988
-0.000234946608543396
-0.00022612512111663818
-0.00021657347679138184
-0.0002063065767288208
-0.00019541382789611816
-0.00018411874771118164
-0.00017249584197998047
-0.000160902738571167
-0.00014947354793548584
-0.00013850629329681396
-0.00012825429439544678
-0.00011895596981048584
-0.00011058151721954346
-0.00010350346565246582
-9.752810001373291e-05
-9.284913539886475e-05
-8.943676948547363e-05
-8.70823860168457e-05
-8.593499660491943e-05
-8.572638034820557e-05
-8.64863395690918e-05
-8.812546730041504e-05
-9.06139612197876e-05
-9.37432050704956e-05
-9.754300117492676e-05
-0.00010184943675994873
-0.00010648369789123535
-0.0001112520694732666
-0.00011615455150604248
-0.00012087821960449219
-0.0001253187656402588
-0.0001293271780014038
-0.00013270974159240723
-0.00013557076454162598
-0.00013771653175354004
-0.00013925135135650635
-0.00014013051986694336
-0.00014038383960723877
-0.00014007091522216797
-0.0001392662525177002
-0.00013810396194458008
-0.00013649463653564453
-0.00013458728790283203
-0.00013242661952972412
-0.00012993812561035156
-0.00012734532356262207
-0.0001245439052581787
-0.0001217275857925415
-0.00011898577213287354
-0.00011642277240753174
-0.0001140981912612915
-0.00011239945888519287
-0.00011141598224639893
-0.00011129677295684814
-0.00011226534843444824
-0.00011438131332397461
-0.00011786818504333496
-0.00012260675430297852
-0.00012862682342529297
-0.00013580918312072754
-0.0001439303159713745
-0.0001628398895263672
-0.00017026066780090332
-0.00017686188220977783
-0.00018268823623657227
-0.00018778443336486816
-0.00019225478172302246
-0.00019615888595581055
-0.00019942224025726318
-0.00020213425159454346
-0.00020435452461242676
-0.0002060234546661377
-0.00020740926265716553
-0.0002084970474243164
-0.00020962953567504883
-0.00021088123321533203
-0.00021252036094665527
-0.00021477043628692627
-0.00021770596504211426
-0.00022141635417938232
-0.0002257823944091797
-0.00023089349269866943
-0.0002364516258239746
-0.00024244189262390137
-0.0002484917640686035
-0.00025440752506256104
-0.0002599954605102539
-0.0002649575471878052
-0.00026907026767730713
-0.00027219951152801514
-0.0002741813659667969
-0.00027498602867126465
-0.00027455389499664307
-0.00027292966842651367
-0.0002701282501220703
-0.0002662092447280884
-0.00026126205921173096
-0.0002554357051849365
-0.000248640775680542
-0.00024099647998809814
-0.00023256242275238037
-0.00022323429584503174
-0.0002132505178451538
-0.00020256638526916504
-0.00019134581089019775
-0.00017964839935302734
-0.0001678168773651123
-0.00015585124492645264
-0.00014419853687286377
-0.00013305246829986572
-0.00012257695198059082
-0.00011305510997772217
-0.00010466575622558594
-9.740889072418213e-05
-9.135901927947998e-05
-8.656084537506104e-05
-8.291006088256836e-05
-8.037686347961426e-05
-7.890164852142334e-05
-7.836520671844482e-05
-7.878243923187256e-05
-8.00788402557373e-05
-8.209049701690674e-05
-8.487701416015625e-05
-8.830428123474121e-05
-9.225308895111084e-05
-9.676814079284668e-05
-0.00010152161121368408
-0.00010637938976287842
-0.00011126697063446045
-0.00011596083641052246
-0.00012026727199554443
-0.00012412667274475098
-0.00012737512588500977
-0.00012992322444915771
-0.00013184547424316406
-0.00013300776481628418
-0.0001335740089416504
-0.0001334846019744873
-0.0001328587532043457
-0.00013183057308197021
-0.00013031065464019775
-0.00012849271297454834
-0.00012631714344024658
-0.00012388825416564941
-0.00012120604515075684
-0.00011841952800750732
-0.00011546909809112549
-0.00011248886585235596
-0.00010961294174194336
-0.00010693073272705078
-0.00010475516319274902
-0.00010311603546142578
-0.00010231137275695801
-0.00010256469249725342
-0.00010401010513305664
-0.00010682642459869385
-0.00011111795902252197
-0.00011692941188812256
-0.00012405216693878174
-0.00013239681720733643
-0.00016546249389648438
-0.00017227232456207275
-0.00017812848091125488
-0.00018337368965148926
-0.00018793344497680664
-0.00019200146198272705
-0.00019538402557373047
-0.0001983344554901123
-0.00020071864128112793
-0.00020267069339752197
-0.00020419061183929443
-0.00020538270473480225
-0.00020635128021240234
-0.00020739436149597168
-0.00020854175090789795
-0.00021019577980041504
-0.0002124309539794922
-0.00021544098854064941
-0.0002192854881286621
-0.0002238452434539795
-0.00022917985916137695
-0.0002350062131881714
-0.0002412945032119751
-0.0002476722002029419
-0.00025388598442077637
-0.0002597719430923462
-0.0002650320529937744
-0.0002694129943847656
-0.0002726316452026367
-0.0002747178077697754
-0.0002754777669906616
-0.0002749413251876831
-0.00027310848236083984
-0.0002699345350265503
-0.000265657901763916
-0.00026032328605651855
-0.000254020094871521
-0.00024674832820892334
-0.0002386718988418579
-0.00022980570793151855
-0.00022014975547790527
-0.00020982325077056885
-0.00019878149032592773
-0.0001872330904006958
-0.00017537176609039307