TITLE = "Linear advectino equation" 
VARIABLES = "x", "y", "sol" 
ZONE STRANDID=1, SOLUTIONTIME= 0.0, I= 100, J =100, DATAPACKING=POINT 
-0.99, -0.99,0.00394264934276107
-0.97, -0.99,0.011765770092923337
-0.95, -0.99,0.01940333762018984
-0.9299999999999999, -0.99,0.02673490292219388
-0.91, -0.99,0.033644842834458004
-0.89, -0.99,0.04002418347676787
-0.87, -0.99,0.04577231883636083
-0.85, -0.99,0.05079859738484646
-0.83, -0.99,0.0550237517069619
-0.81, -0.99,0.0583811485950625
-0.79, -0.99,0.060817839894611286
-0.77, -0.99,0.062295397528205516
-0.75, -0.99,0.06279051952931326
-0.73, -0.99,0.06229539752820551
-0.71, -0.99,0.06081783989461128
-0.69, -0.99,0.058381148595062486
-0.6699999999999999, -0.99,0.05502375170696186
-0.6499999999999999, -0.99,0.05079859738484641
-0.63, -0.99,0.04577231883636081
-0.61, -0.99,0.04002418347676787
-0.59, -0.99,0.03364484283445801
-0.5700000000000001, -0.99,0.02673490292219386
-0.55, -0.99,0.019403337620189844
-0.53, -0.99,0.011765770092923343
-0.51, -0.99,0.003942649342761075
-0.49, -0.99,-0.003942649342761091
-0.47, -0.99,-0.011765770092923358
-0.44999999999999996, -0.99,-0.019403337620189857
-0.42999999999999994, -0.99,-0.026734902922193875
-0.41000000000000003, -0.99,-0.033644842834458025
-0.39, -0.99,-0.04002418347676789
-0.37, -0.99,-0.04577231883636082
-0.35, -0.99,-0.050798597384846454
-0.32999999999999996, -0.99,-0.055023751706961894
-0.30999999999999994, -0.99,-0.05838114859506252
-0.2899999999999999, -0.99,-0.0608178398946113
-0.27, -0.99,-0.06229539752820551
-0.25, -0.99,-0.06279051952931326
-0.22999999999999998, -0.99,-0.06229539752820551
-0.20999999999999996, -0.99,-0.060817839894611286
-0.18999999999999995, -0.99,-0.0583811485950625
-0.16999999999999993, -0.99,-0.055023751706961874
-0.15000000000000002, -0.99,-0.050798597384846454
-0.13, -0.99,-0.04577231883636083
-0.11, -0.99,-0.04002418347676787
-0.08999999999999998, -0.99,-0.03364484283445802
-0.06999999999999997, -0.99,-0.026734902922193847
-0.04999999999999994, -0.99,-0.019403337620189802
-0.030000000000000034, -0.99,-0.011765770092923346
-0.010000000000000018, -0.99,-0.003942649342761085
0.01, -0.99,0.003942649342761078
0.03000000000000002, -0.99,0.011765770092923341
0.05000000000000004, -0.99,0.019403337620189837
0.07000000000000005, -0.99,0.026734902922193875
0.09000000000000007, -0.99,0.033644842834458046
0.11000000000000008, -0.99,0.0400241834767679
0.13000000000000012, -0.99,0.045772318836360855
0.15000000000000013, -0.99,0.05079859738484648
0.16999999999999993, -0.99,0.055023751706961874
0.18999999999999995, -0.99,0.0583811485950625
0.20999999999999996, -0.99,0.060817839894611286
0.22999999999999998, -0.99,0.06229539752820551
0.25, -0.99,0.06279051952931326
0.27, -0.99,0.06229539752820551
0.29000000000000004, -0.99,0.060817839894611286
0.31000000000000005, -0.99,0.05838114859506251
0.33000000000000007, -0.99,0.05502375170696188
0.3500000000000001, -0.99,0.05079859738484644
0.3700000000000001, -0.99,0.0457723188363608
0.3900000000000001, -0.99,0.040024183476767845
0.41000000000000014, -0.99,0.033644842834457976
0.42999999999999994, -0.99,0.026734902922193875
0.44999999999999996, -0.99,0.019403337620189857
0.47, -0.99,0.011765770092923358
0.49, -0.99,0.003942649342761091
0.51, -0.99,-0.003942649342761075
0.53, -0.99,-0.011765770092923343
0.55, -0.99,-0.019403337620189844
0.5700000000000001, -0.99,-0.02673490292219386
0.5900000000000001, -0.99,-0.03364484283445803
0.6100000000000001, -0.99,-0.040024183476767894
0.6300000000000001, -0.99,-0.04577231883636085
0.6500000000000001, -0.99,-0.05079859738484648
0.6700000000000002, -0.99,-0.055023751706961915
0.69, -0.99,-0.058381148595062486
0.71, -0.99,-0.06081783989461128
0.73, -0.99,-0.06229539752820551
0.75, -0.99,-0.06279051952931326
0.77, -0.99,-0.062295397528205516
0.79, -0.99,-0.060817839894611286
0.81, -0.99,-0.0583811485950625
0.8300000000000001, -0.99,-0.055023751706961874
0.8500000000000001, -0.99,-0.050798597384846426
0.8700000000000001, -0.99,-0.045772318836360786
0.8900000000000001, -0.99,-0.04002418347676787
0.9100000000000001, -0.99,-0.033644842834458004
0.9299999999999999, -0.99,-0.02673490292219388
0.95, -0.99,-0.01940333762018984
0.97, -0.99,-0.011765770092923337
0.99, -0.99,-0.00394264934276107
-0.99, -0.97,0.011765770092923337
-0.97, -0.97,0.03511175705587432
-0.95, -0.97,0.05790401063530719
-0.9299999999999999, -0.97,0.07978308337684194
-0.91, -0.97,0.10040392923341991
-0.89, -0.97,0.11944134514758696
-0.87, -0.97,0.13659509969797545
-0.85, -0.97,0.1515946679281695
-0.83, -0.97,0.16420349768687123
-0.81, -0.97,0.174222740196636
-0.79, -0.97,0.18149438601787968
-0.77, -0.97,0.18590375695213046
-0.75, -0.97,0.18738131458572468
-0.73, -0.97,0.18590375695213043
-0.71, -0.97,0.18149438601787965
-0.69, -0.97,0.174222740196636
-0.6699999999999999, -0.97,0.16420349768687112
-0.6499999999999999, -0.97,0.15159466792816936
-0.63, -0.97,0.1365950996979754
-0.61, -0.97,0.11944134514758696
-0.59, -0.97,0.10040392923341994
-0.5700000000000001, -0.97,0.07978308337684187
-0.55, -0.97,0.057904010635307195
-0.53, -0.97,0.03511175705587433
-0.51, -0.97,0.011765770092923353
-0.49, -0.97,-0.011765770092923398
-0.47, -0.97,-0.03511175705587438
-0.44999999999999996, -0.97,-0.057904010635307236
-0.42999999999999994, -0.97,-0.07978308337684191
-0.41000000000000003, -0.97,-0.10040392923341998
-0.39, -0.97,-0.119441345147587
-0.37, -0.97,-0.13659509969797543
-0.35, -0.97,-0.15159466792816947
-0.32999999999999996, -0.97,-0.1642034976868712
-0.30999999999999994, -0.97,-0.17422274019663608
-0.2899999999999999, -0.97,-0.18149438601787973
-0.27, -0.97,-0.18590375695213043
-0.25, -0.97,-0.18738131458572468
-0.22999999999999998, -0.97,-0.18590375695213043
-0.20999999999999996, -0.97,-0.18149438601787968
-0.18999999999999995, -0.97,-0.174222740196636
-0.16999999999999993, -0.97,-0.16420349768687115
-0.15000000000000002, -0.97,-0.15159466792816947
-0.13, -0.97,-0.13659509969797545
-0.11, -0.97,-0.11944134514758696
-0.08999999999999998, -0.97,-0.10040392923341995
-0.06999999999999997, -0.97,-0.07978308337684183
-0.04999999999999994, -0.97,-0.05790401063530707
-0.030000000000000034, -0.97,-0.03511175705587435
-0.010000000000000018, -0.97,-0.011765770092923379
0.01, -0.97,0.011765770092923358
0.03000000000000002, -0.97,0.035111757055874326
0.05000000000000004, -0.97,0.057904010635307174
0.07000000000000005, -0.97,0.07978308337684191
0.09000000000000007, -0.97,0.10040392923342004
0.11000000000000008, -0.97,0.11944134514758704
0.13000000000000012, -0.97,0.13659509969797554
0.15000000000000013, -0.97,0.15159466792816956
0.16999999999999993, -0.97,0.16420349768687115
0.18999999999999995, -0.97,0.174222740196636
0.20999999999999996, -0.97,0.18149438601787968
0.22999999999999998, -0.97,0.18590375695213043
0.25, -0.97,0.18738131458572468
0.27, -0.97,0.18590375695213043
0.29000000000000004, -0.97,0.18149438601787968
0.31000000000000005, -0.97,0.17422274019663603
0.33000000000000007, -0.97,0.16420349768687117
0.3500000000000001, -0.97,0.15159466792816945
0.3700000000000001, -0.97,0.13659509969797537
0.3900000000000001, -0.97,0.11944134514758688
0.41000000000000014, -0.97,0.10040392923341983
0.42999999999999994, -0.97,0.07978308337684191
0.44999999999999996, -0.97,0.057904010635307236
0.47, -0.97,0.03511175705587438
0.49, -0.97,0.011765770092923398
0.51, -0.97,-0.011765770092923353
0.53, -0.97,-0.03511175705587433
0.55, -0.97,-0.057904010635307195
0.5700000000000001, -0.97,-0.07978308337684187
0.5900000000000001, -0.97,-0.10040392923342
0.6100000000000001, -0.97,-0.11944134514758702
0.6300000000000001, -0.97,-0.1365950996979755
0.6500000000000001, -0.97,-0.15159466792816956
0.6700000000000002, -0.97,-0.16420349768687129
0.69, -0.97,-0.174222740196636
0.71, -0.97,-0.18149438601787965
0.73, -0.97,-0.18590375695213043
0.75, -0.97,-0.18738131458572468
0.77, -0.97,-0.18590375695213046
0.79, -0.97,-0.18149438601787968
0.81, -0.97,-0.174222740196636
0.8300000000000001, -0.97,-0.16420349768687115
0.8500000000000001, -0.97,-0.1515946679281694
0.8700000000000001, -0.97,-0.13659509969797531
0.8900000000000001, -0.97,-0.11944134514758696
0.9100000000000001, -0.97,-0.10040392923341991
0.9299999999999999, -0.97,-0.07978308337684194
0.95, -0.97,-0.05790401063530719
0.97, -0.97,-0.03511175705587432
0.99, -0.97,-0.011765770092923337
-0.99, -0.95,0.01940333762018984
-0.97, -0.95,0.05790401063530719
-0.95, -0.95,0.09549150281252644
-0.9299999999999999, -0.95,0.13157303694653336
-0.91, -0.95,0.16557958568997075
-0.89, -0.95,0.19697484545462754
-0.87, -0.95,0.22526369423939566
-0.85, -0.95,0.2500000000000002
-0.83, -0.95,0.27079365641784375
-0.81, -0.95,0.28731673510968836
-0.79, -0.95,0.29930865725415523
-0.77, -0.95,0.3065803030753989
-0.75, -0.95,0.3090169943749477
-0.73, -0.95,0.30658030307539885
-0.71, -0.95,0.2993086572541552
-0.69, -0.95,0.2873167351096883
-0.6699999999999999, -0.95,0.27079365641784353
-0.6499999999999999, -0.95,0.25
-0.63, -0.95,0.2252636942393956
-0.61, -0.95,0.19697484545462754
-0.59, -0.95,0.16557958568997078
-0.5700000000000001, -0.95,0.13157303694653327
-0.55, -0.95,0.09549150281252645
-0.53, -0.95,0.05790401063530721
-0.51, -0.95,0.019403337620189864
-0.49, -0.95,-0.019403337620189937
-0.47, -0.95,-0.057904010635307285
-0.44999999999999996, -0.95,-0.09549150281252652
-0.42999999999999994, -0.95,-0.13157303694653333
-0.41000000000000003, -0.95,-0.16557958568997086
-0.39, -0.95,-0.1969748454546276
-0.37, -0.95,-0.22526369423939563
-0.35, -0.95,-0.2500000000000002
-0.32999999999999996, -0.95,-0.2707936564178437
-0.30999999999999994, -0.95,-0.28731673510968847
-0.2899999999999999, -0.95,-0.2993086572541553
-0.27, -0.95,-0.30658030307539885
-0.25, -0.95,-0.3090169943749477
-0.22999999999999998, -0.95,-0.30658030307539885
-0.20999999999999996, -0.95,-0.29930865725415523
-0.18999999999999995, -0.95,-0.28731673510968836
-0.16999999999999993, -0.95,-0.2707936564178436
-0.15000000000000002, -0.95,-0.2500000000000002
-0.13, -0.95,-0.22526369423939566
-0.11, -0.95,-0.19697484545462754
-0.08999999999999998, -0.95,-0.1655795856899708
-0.06999999999999997, -0.95,-0.1315730369465332
-0.04999999999999994, -0.95,-0.09549150281252625
-0.030000000000000034, -0.95,-0.05790401063530723
-0.010000000000000018, -0.95,-0.019403337620189906
0.01, -0.95,0.01940333762018987
0.03000000000000002, -0.95,0.0579040106353072
0.05000000000000004, -0.95,0.09549150281252643
0.07000000000000005, -0.95,0.13157303694653333
0.09000000000000007, -0.95,0.16557958568997094
0.11000000000000008, -0.95,0.19697484545462768
0.13000000000000012, -0.95,0.2252636942393958
0.15000000000000013, -0.95,0.25000000000000033
0.16999999999999993, -0.95,0.2707936564178436
0.18999999999999995, -0.95,0.28731673510968836
0.20999999999999996, -0.95,0.29930865725415523
0.22999999999999998, -0.95,0.30658030307539885
0.25, -0.95,0.3090169943749477
0.27, -0.95,0.30658030307539885
0.29000000000000004, -0.95,0.29930865725415523
0.31000000000000005, -0.95,0.28731673510968836
0.33000000000000007, -0.95,0.27079365641784364
0.3500000000000001, -0.95,0.25000000000000017
0.3700000000000001, -0.95,0.22526369423939552
0.3900000000000001, -0.95,0.1969748454546274
0.41000000000000014, -0.95,0.1655795856899706
0.42999999999999994, -0.95,0.13157303694653333
0.44999999999999996, -0.95,0.09549150281252652
0.47, -0.95,0.057904010635307285
0.49, -0.95,0.019403337620189937
0.51, -0.95,-0.019403337620189864
0.53, -0.95,-0.05790401063530721
0.55, -0.95,-0.09549150281252645
0.5700000000000001, -0.95,-0.13157303694653327
0.5900000000000001, -0.95,-0.1655795856899709
0.6100000000000001, -0.95,-0.19697484545462762
0.6300000000000001, -0.95,-0.22526369423939577
0.6500000000000001, -0.95,-0.25000000000000033
0.6700000000000002, -0.95,-0.2707936564178438
0.69, -0.95,-0.2873167351096883
0.71, -0.95,-0.2993086572541552
0.73, -0.95,-0.30658030307539885
0.75, -0.95,-0.3090169943749477
0.77, -0.95,-0.3065803030753989
0.79, -0.95,-0.29930865725415523
0.81, -0.95,-0.28731673510968836
0.8300000000000001, -0.95,-0.2707936564178436
0.8500000000000001, -0.95,-0.25000000000000006
0.8700000000000001, -0.95,-0.22526369423939546
0.8900000000000001, -0.95,-0.19697484545462754
0.9100000000000001, -0.95,-0.16557958568997075
0.9299999999999999, -0.95,-0.13157303694653336
0.95, -0.95,-0.09549150281252644
0.97, -0.95,-0.05790401063530719
0.99, -0.95,-0.01940333762018984
-0.99, -0.9299999999999999,0.02673490292219388
-0.97, -0.9299999999999999,0.07978308337684194
-0.95, -0.9299999999999999,0.13157303694653336
-0.9299999999999999, -0.9299999999999999,0.18128800512565543
-0.91, -0.9299999999999999,0.22814395316774067
-0.89, -0.9299999999999999,0.27140193478177943
-0.87, -0.9299999999999999,0.3103797457566522
-0.85, -0.9299999999999999,0.3444626827290698
-0.83, -0.9299999999999999,0.37311323742281743
-0.81, -0.9299999999999999,0.3958795734753627
-0.79, -0.9299999999999999,0.4124026521672075
-0.77, -0.9299999999999999,0.4224218946769724
-0.75, -0.9299999999999999,0.425779291565073
-0.73, -0.9299999999999999,0.42242189467697233
-0.71, -0.9299999999999999,0.41240265216720745
-0.69, -0.9299999999999999,0.3958795734753627
-0.6699999999999999, -0.9299999999999999,0.37311323742281716
-0.6499999999999999, -0.9299999999999999,0.3444626827290695
-0.63, -0.9299999999999999,0.31037974575665217
-0.61, -0.9299999999999999,0.27140193478177943
-0.59, -0.9299999999999999,0.22814395316774072
-0.5700000000000001, -0.9299999999999999,0.1812880051256553
-0.55, -0.9299999999999999,0.13157303694653338
-0.53, -0.9299999999999999,0.07978308337684197
-0.51, -0.9299999999999999,0.026734902922193916
-0.49, -0.9299999999999999,-0.026734902922194017
-0.47, -0.9299999999999999,-0.07978308337684208
-0.44999999999999996, -0.9299999999999999,-0.1315730369465335
-0.42999999999999994, -0.9299999999999999,-0.18128800512565538
-0.41000000000000003, -0.9299999999999999,-0.2281439531677408
-0.39, -0.9299999999999999,-0.27140193478177954
-0.37, -0.9299999999999999,-0.3103797457566522
-0.35, -0.9299999999999999,-0.34446268272906977
-0.32999999999999996, -0.9299999999999999,-0.3731132374228174
-0.30999999999999994, -0.9299999999999999,-0.39587957347536284
-0.2899999999999999, -0.9299999999999999,-0.41240265216720756
-0.27, -0.9299999999999999,-0.42242189467697233
-0.25, -0.9299999999999999,-0.425779291565073
-0.22999999999999998, -0.9299999999999999,-0.42242189467697233
-0.20999999999999996, -0.9299999999999999,-0.4124026521672075
-0.18999999999999995, -0.9299999999999999,-0.3958795734753627
-0.16999999999999993, -0.9299999999999999,-0.3731132374228172
-0.15000000000000002, -0.9299999999999999,-0.34446268272906977
-0.13, -0.9299999999999999,-0.3103797457566522
-0.11, -0.9299999999999999,-0.27140193478177943
-0.08999999999999998, -0.9299999999999999,-0.22814395316774075
-0.06999999999999997, -0.9299999999999999,-0.1812880051256552
-0.04999999999999994, -0.9299999999999999,-0.1315730369465331
-0.030000000000000034, -0.9299999999999999,-0.07978308337684199
-0.010000000000000018, -0.9299999999999999,-0.026734902922193975
0.01, -0.9299999999999999,0.02673490292219393
0.03000000000000002, -0.9299999999999999,0.07978308337684197
0.05000000000000004, -0.9299999999999999,0.13157303694653336
0.07000000000000005, -0.9299999999999999,0.18128800512565538
0.09000000000000007, -0.9299999999999999,0.22814395316774094
0.11000000000000008, -0.9299999999999999,0.2714019347817796
0.13000000000000012, -0.9299999999999999,0.31037974575665245
0.15000000000000013, -0.9299999999999999,0.34446268272906994
0.16999999999999993, -0.9299999999999999,0.3731132374228172
0.18999999999999995, -0.9299999999999999,0.3958795734753627
0.20999999999999996, -0.9299999999999999,0.4124026521672075
0.22999999999999998, -0.9299999999999999,0.42242189467697233
0.25, -0.9299999999999999,0.425779291565073
0.27, -0.9299999999999999,0.42242189467697233
0.29000000000000004, -0.9299999999999999,0.4124026521672075
0.31000000000000005, -0.9299999999999999,0.39587957347536273
0.33000000000000007, -0.9299999999999999,0.37311323742281727
0.3500000000000001, -0.9299999999999999,0.34446268272906966
0.3700000000000001, -0.9299999999999999,0.31037974575665206
0.3900000000000001, -0.9299999999999999,0.2714019347817792
0.41000000000000014, -0.9299999999999999,0.22814395316774047
0.42999999999999994, -0.9299999999999999,0.18128800512565538
0.44999999999999996, -0.9299999999999999,0.1315730369465335
0.47, -0.9299999999999999,0.07978308337684208
0.49, -0.9299999999999999,0.026734902922194017
0.51, -0.9299999999999999,-0.026734902922193916
0.53, -0.9299999999999999,-0.07978308337684197
0.55, -0.9299999999999999,-0.13157303694653338
0.5700000000000001, -0.9299999999999999,-0.1812880051256553
0.5900000000000001, -0.9299999999999999,-0.22814395316774086
0.6100000000000001, -0.9299999999999999,-0.27140193478177954
0.6300000000000001, -0.9299999999999999,-0.3103797457566524
0.6500000000000001, -0.9299999999999999,-0.34446268272906994
0.6700000000000002, -0.9299999999999999,-0.3731132374228175
0.69, -0.9299999999999999,-0.3958795734753627
0.71, -0.9299999999999999,-0.41240265216720745
0.73, -0.9299999999999999,-0.42242189467697233
0.75, -0.9299999999999999,-0.425779291565073
0.77, -0.9299999999999999,-0.4224218946769724
0.79, -0.9299999999999999,-0.4124026521672075
0.81, -0.9299999999999999,-0.3958795734753627
0.8300000000000001, -0.9299999999999999,-0.3731132374228172
0.8500000000000001, -0.9299999999999999,-0.3444626827290696
0.8700000000000001, -0.9299999999999999,-0.31037974575665195
0.8900000000000001, -0.9299999999999999,-0.27140193478177943
0.9100000000000001, -0.9299999999999999,-0.22814395316774067
0.9299999999999999, -0.9299999999999999,-0.18128800512565543
0.95, -0.9299999999999999,-0.13157303694653336
0.97, -0.9299999999999999,-0.07978308337684194
0.99, -0.9299999999999999,-0.02673490292219388
-0.99, -0.91,0.033644842834458004
-0.97, -0.91,0.10040392923341991
-0.95, -0.91,0.16557958568997075
-0.9299999999999999, -0.91,0.22814395316774067
-0.91, -0.91,0.28711035421746334
-0.89, -0.91,0.341548853469765
-0.87, -0.91,0.39060092327145307
-0.85, -0.91,0.4334929831794688
-0.83, -0.91,0.46954859978658836
-0.81, -0.91,0.49819915448033564
-0.79, -0.91,0.5189928108981792
-0.77, -0.91,0.5316016406568809
-0.75, -0.91,0.5358267949789963
-0.73, -0.91,0.5316016406568809
-0.71, -0.91,0.5189928108981791
-0.69, -0.91,0.4981991544803356
-0.6699999999999999, -0.91,0.469548599786588
-0.6499999999999999, -0.91,0.43349298317946844
-0.63, -0.91,0.3906009232714529
-0.61, -0.91,0.341548853469765
-0.59, -0.91,0.2871103542174634
-0.5700000000000001, -0.91,0.2281439531677405
-0.55, -0.91,0.16557958568997078
-0.53, -0.91,0.10040392923341995
-0.51, -0.91,0.033644842834458046
-0.49, -0.91,-0.03364484283445817
-0.47, -0.91,-0.10040392923342009
-0.44999999999999996, -0.91,-0.1655795856899709
-0.42999999999999994, -0.91,-0.2281439531677406
-0.41000000000000003, -0.91,-0.28711035421746356
-0.39, -0.91,-0.3415488534697651
-0.37, -0.91,-0.39060092327145296
-0.35, -0.91,-0.43349298317946877
-0.32999999999999996, -0.91,-0.4695485997865883
-0.30999999999999994, -0.91,-0.49819915448033586
-0.2899999999999999, -0.91,-0.5189928108981793
-0.27, -0.91,-0.5316016406568809
-0.25, -0.91,-0.5358267949789963
-0.22999999999999998, -0.91,-0.5316016406568809
-0.20999999999999996, -0.91,-0.5189928108981792
-0.18999999999999995, -0.91,-0.49819915448033564
-0.16999999999999993, -0.91,-0.4695485997865881
-0.15000000000000002, -0.91,-0.43349298317946877
-0.13, -0.91,-0.39060092327145307
-0.11, -0.91,-0.341548853469765
-0.08999999999999998, -0.91,-0.2871103542174635
-0.06999999999999997, -0.91,-0.22814395316774036
-0.04999999999999994, -0.91,-0.16557958568997042
-0.030000000000000034, -0.91,-0.10040392923342
-0.010000000000000018, -0.91,-0.03364484283445812
0.01, -0.91,0.03364484283445806
0.03000000000000002, -0.91,0.10040392923341994
0.05000000000000004, -0.91,0.16557958568997072
0.07000000000000005, -0.91,0.2281439531677406
0.09000000000000007, -0.91,0.2871103542174637
0.11000000000000008, -0.91,0.3415488534697652
0.13000000000000012, -0.91,0.3906009232714533
0.15000000000000013, -0.91,0.43349298317946905
0.16999999999999993, -0.91,0.4695485997865881
0.18999999999999995, -0.91,0.49819915448033564
0.20999999999999996, -0.91,0.5189928108981792
0.22999999999999998, -0.91,0.5316016406568809
0.25, -0.91,0.5358267949789963
0.27, -0.91,0.5316016406568809
0.29000000000000004, -0.91,0.5189928108981792
0.31000000000000005, -0.91,0.49819915448033575
0.33000000000000007, -0.91,0.46954859978658814
0.3500000000000001, -0.91,0.43349298317946866
0.3700000000000001, -0.91,0.3906009232714528
0.3900000000000001, -0.91,0.3415488534697647
0.41000000000000014, -0.91,0.2871103542174631
0.42999999999999994, -0.91,0.2281439531677406
0.44999999999999996, -0.91,0.1655795856899709
0.47, -0.91,0.10040392923342009
0.49, -0.91,0.03364484283445817
0.51, -0.91,-0.033644842834458046
0.53, -0.91,-0.10040392923341995
0.55, -0.91,-0.16557958568997078
0.5700000000000001, -0.91,-0.2281439531677405
0.5900000000000001, -0.91,-0.2871103542174636
0.6100000000000001, -0.91,-0.34154885346976516
0.6300000000000001, -0.91,-0.39060092327145324
0.6500000000000001, -0.91,-0.43349298317946905
0.6700000000000002, -0.91,-0.46954859978658847
0.69, -0.91,-0.4981991544803356
0.71, -0.91,-0.5189928108981791
0.73, -0.91,-0.5316016406568809
0.75, -0.91,-0.5358267949789963
0.77, -0.91,-0.5316016406568809
0.79, -0.91,-0.5189928108981792
0.81, -0.91,-0.49819915448033564
0.8300000000000001, -0.91,-0.4695485997865881
0.8500000000000001, -0.91,-0.43349298317946855
0.8700000000000001, -0.91,-0.3906009232714527
0.8900000000000001, -0.91,-0.341548853469765
0.9100000000000001, -0.91,-0.28711035421746334
0.9299999999999999, -0.91,-0.22814395316774067
0.95, -0.91,-0.16557958568997075
0.97, -0.91,-0.10040392923341991
0.99, -0.91,-0.033644842834458004
-0.99, -0.89,0.04002418347676787
-0.97, -0.89,0.11944134514758696
-0.95, -0.89,0.19697484545462754
-0.9299999999999999, -0.89,0.27140193478177943
-0.91, -0.89,0.341548853469765
-0.89, -0.89,0.4063093427071376
-0.87, -0.89,0.4646620908925822
-0.85, -0.89,0.5156868403289723
-0.83, -0.89,0.5585789002369881
-0.81, -0.89,0.5926618372094054
-0.79, -0.89,0.6173981429700099
-0.77, -0.89,0.632397711200204
-0.75, -0.89,0.6374239897486896
-0.73, -0.89,0.6323977112002039
-0.71, -0.89,0.6173981429700098
-0.69, -0.89,0.5926618372094052
-0.6699999999999999, -0.89,0.5585789002369876
-0.6499999999999999, -0.89,0.5156868403289718
-0.63, -0.89,0.46466209089258204
-0.61, -0.89,0.4063093427071376
-0.59, -0.89,0.34154885346976505
-0.5700000000000001, -0.89,0.2714019347817792
-0.55, -0.89,0.19697484545462757
-0.53, -0.89,0.11944134514758702
-0.51, -0.89,0.04002418347676793
-0.49, -0.89,-0.040024183476768074
-0.47, -0.89,-0.11944134514758717
-0.44999999999999996, -0.89,-0.1969748454546277
-0.42999999999999994, -0.89,-0.2714019347817794
-0.41000000000000003, -0.89,-0.3415488534697652
-0.39, -0.89,-0.40630934270713776
-0.37, -0.89,-0.46466209089258215
-0.35, -0.89,-0.5156868403289722
-0.32999999999999996, -0.89,-0.558578900236988
-0.30999999999999994, -0.89,-0.5926618372094056
-0.2899999999999999, -0.89,-0.61739814297001
-0.27, -0.89,-0.6323977112002039
-0.25, -0.89,-0.6374239897486896
-0.22999999999999998, -0.89,-0.6323977112002039
-0.20999999999999996, -0.89,-0.6173981429700099
-0.18999999999999995, -0.89,-0.5926618372094054
-0.16999999999999993, -0.89,-0.5585789002369878
-0.15000000000000002, -0.89,-0.5156868403289722
-0.13, -0.89,-0.4646620908925822
-0.11, -0.89,-0.4063093427071376
-0.08999999999999998, -0.89,-0.3415488534697651
-0.06999999999999997, -0.89,-0.27140193478177904
-0.04999999999999994, -0.89,-0.19697484545462715
-0.030000000000000034, -0.89,-0.11944134514758704
-0.010000000000000018, -0.89,-0.04002418347676801
0.01, -0.89,0.04002418347676794
0.03000000000000002, -0.89,0.11944134514758699
0.05000000000000004, -0.89,0.19697484545462748
0.07000000000000005, -0.89,0.2714019347817794
0.09000000000000007, -0.89,0.3415488534697654
0.11000000000000008, -0.89,0.40630934270713787
0.13000000000000012, -0.89,0.4646620908925825
0.15000000000000013, -0.89,0.5156868403289725
0.16999999999999993, -0.89,0.5585789002369878
0.18999999999999995, -0.89,0.5926618372094054
0.20999999999999996, -0.89,0.6173981429700099
0.22999999999999998, -0.89,0.6323977112002039
0.25, -0.89,0.6374239897486896
0.27, -0.89,0.6323977112002039
0.29000000000000004, -0.89,0.6173981429700099
0.31000000000000005, -0.89,0.5926618372094054
0.33000000000000007, -0.89,0.5585789002369879
0.3500000000000001, -0.89,0.515686840328972
0.3700000000000001, -0.89,0.4646620908925819
0.3900000000000001, -0.89,0.4063093427071373
0.41000000000000014, -0.89,0.3415488534697647
0.42999999999999994, -0.89,0.2714019347817794
0.44999999999999996, -0.89,0.1969748454546277
0.47, -0.89,0.11944134514758717
0.49, -0.89,0.040024183476768074
0.51, -0.89,-0.04002418347676793
0.53, -0.89,-0.11944134514758702
0.55, -0.89,-0.19697484545462757
0.5700000000000001, -0.89,-0.2714019347817792
0.5900000000000001, -0.89,-0.34154885346976527
0.6100000000000001, -0.89,-0.4063093427071378
0.6300000000000001, -0.89,-0.4646620908925824
0.6500000000000001, -0.89,-0.5156868403289725
0.6700000000000002, -0.89,-0.5585789002369882
0.69, -0.89,-0.5926618372094052
0.71, -0.89,-0.6173981429700098
0.73, -0.89,-0.6323977112002039
0.75, -0.89,-0.6374239897486896
0.77, -0.89,-0.632397711200204
0.79, -0.89,-0.6173981429700099
0.81, -0.89,-0.5926618372094054
0.8300000000000001, -0.89,-0.5585789002369878
0.8500000000000001, -0.89,-0.5156868403289719
0.8700000000000001, -0.89,-0.46466209089258176
0.8900000000000001, -0.89,-0.4063093427071376
0.9100000000000001, -0.89,-0.341548853469765
0.9299999999999999, -0.89,-0.27140193478177943
0.95, -0.89,-0.19697484545462754
0.97, -0.89,-0.11944134514758696
0.99, -0.89,-0.04002418347676787
-0.99, -0.87,0.04577231883636083
-0.97, -0.87,0.13659509969797545
-0.95, -0.87,0.22526369423939566
-0.9299999999999999, -0.87,0.3103797457566522
-0.91, -0.87,0.39060092327145307
-0.89, -0.87,0.4646620908925822
-0.87, -0.87,0.5313952597646567
-0.85, -0.87,0.5897480079501014
-0.83, -0.87,0.6388000777517895
-0.81, -0.87,0.6777778887266619
-0.79, -0.87,0.7060667375114301
-0.77, -0.87,0.7232204920618186
-0.75, -0.87,0.7289686274214116
-0.73, -0.87,0.7232204920618186
-0.71, -0.87,0.70606673751143
-0.69, -0.87,0.6777778887266619
-0.6699999999999999, -0.87,0.6388000777517889
-0.6499999999999999, -0.87,0.5897480079501007
-0.63, -0.87,0.5313952597646565
-0.61, -0.87,0.4646620908925822
-0.59, -0.87,0.3906009232714531
-0.5700000000000001, -0.87,0.310379745756652
-0.55, -0.87,0.2252636942393957
-0.53, -0.87,0.1365950996979755
-0.51, -0.87,0.04577231883636089
-0.49, -0.87,-0.045772318836361056
-0.47, -0.87,-0.1365950996979757
-0.44999999999999996, -0.87,-0.22526369423939585
-0.42999999999999994, -0.87,-0.31037974575665217
-0.41000000000000003, -0.87,-0.3906009232714533
-0.39, -0.87,-0.46466209089258237
-0.37, -0.87,-0.5313952597646566
-0.35, -0.87,-0.5897480079501013
-0.32999999999999996, -0.87,-0.6388000777517894
-0.30999999999999994, -0.87,-0.6777778887266622
-0.2899999999999999, -0.87,-0.7060667375114302
-0.27, -0.87,-0.7232204920618186
-0.25, -0.87,-0.7289686274214116
-0.22999999999999998, -0.87,-0.7232204920618186
-0.20999999999999996, -0.87,-0.7060667375114301
-0.18999999999999995, -0.87,-0.6777778887266619
-0.16999999999999993, -0.87,-0.6388000777517892
-0.15000000000000002, -0.87,-0.5897480079501013
-0.13, -0.87,-0.5313952597646567
-0.11, -0.87,-0.4646620908925822
-0.08999999999999998, -0.87,-0.3906009232714532
-0.06999999999999997, -0.87,-0.31037974575665184
-0.04999999999999994, -0.87,-0.2252636942393952
-0.030000000000000034, -0.87,-0.13659509969797554
-0.010000000000000018, -0.87,-0.04577231883636099
0.01, -0.87,0.045772318836360903
0.03000000000000002, -0.87,0.13659509969797548
0.05000000000000004, -0.87,0.22526369423939563
0.07000000000000005, -0.87,0.31037974575665217
0.09000000000000007, -0.87,0.3906009232714535
0.11000000000000008, -0.87,0.46466209089258254
0.13000000000000012, -0.87,0.5313952597646571
0.15000000000000013, -0.87,0.5897480079501016
0.16999999999999993, -0.87,0.6388000777517892
0.18999999999999995, -0.87,0.6777778887266619
0.20999999999999996, -0.87,0.7060667375114301
0.22999999999999998, -0.87,0.7232204920618186
0.25, -0.87,0.7289686274214116
0.27, -0.87,0.7232204920618186
0.29000000000000004, -0.87,0.7060667375114301
0.31000000000000005, -0.87,0.677777888726662
0.33000000000000007, -0.87,0.6388000777517893
0.3500000000000001, -0.87,0.5897480079501011
0.3700000000000001, -0.87,0.5313952597646564
0.3900000000000001, -0.87,0.46466209089258187
0.41000000000000014, -0.87,0.39060092327145274
0.42999999999999994, -0.87,0.31037974575665217
0.44999999999999996, -0.87,0.22526369423939585
0.47, -0.87,0.1365950996979757
0.49, -0.87,0.045772318836361056
0.51, -0.87,-0.04577231883636089
0.53, -0.87,-0.1365950996979755
0.55, -0.87,-0.2252636942393957
0.5700000000000001, -0.87,-0.310379745756652
0.5900000000000001, -0.87,-0.39060092327145335
0.6100000000000001, -0.87,-0.4646620908925824
0.6300000000000001, -0.87,-0.531395259764657
0.6500000000000001, -0.87,-0.5897480079501016
0.6700000000000002, -0.87,-0.6388000777517896
0.69, -0.87,-0.6777778887266619
0.71, -0.87,-0.70606673751143
0.73, -0.87,-0.7232204920618186
0.75, -0.87,-0.7289686274214116
0.77, -0.87,-0.7232204920618186
0.79, -0.87,-0.7060667375114301
0.81, -0.87,-0.6777778887266619
0.8300000000000001, -0.87,-0.6388000777517892
0.8500000000000001, -0.87,-0.589748007950101
0.8700000000000001, -0.87,-0.5313952597646563
0.8900000000000001, -0.87,-0.4646620908925822
0.9100000000000001, -0.87,-0.39060092327145307
0.9299999999999999, -0.87,-0.3103797457566522
0.95, -0.87,-0.22526369423939566
0.97, -0.87,-0.13659509969797545
0.99, -0.87,-0.04577231883636083
-0.99, -0.85,0.05079859738484646
-0.97, -0.85,0.1515946679281695
-0.95, -0.85,0.2500000000000002
-0.9299999999999999, -0.85,0.3444626827290698
-0.91, -0.85,0.4334929831794688
-0.89, -0.85,0.5156868403289723
-0.87, -0.85,0.5897480079501014
-0.85, -0.85,0.654508497187474