# vtk DataFile Version 3.0
2D PINN Solution
ASCII
DATASET STRUCTURED_GRID
DIMENSIONS 100 100 1
POINTS 10000 float
-1.0 -1.0 0.0
-0.9797979797979798 -1.0 0.0
-0.9595959595959596 -1.0 0.0
-0.9393939393939394 -1.0 0.0
-0.9191919191919192 -1.0 0.0
-0.898989898989899 -1.0 0.0
-0.8787878787878788 -1.0 0.0
-0.8585858585858586 -1.0 0.0
-0.8383838383838383 -1.0 0.0
-0.8181818181818181 -1.0 0.0
-0.797979797979798 -1.0 0.0
-0.7777777777777778 -1.0 0.0
-0.7575757575757576 -1.0 0.0
-0.7373737373737373 -1.0 0.0
-0.7171717171717171 -1.0 0.0
-0.696969696969697 -1.0 0.0
-0.6767676767676767 -1.0 0.0
-0.6565656565656566 -1.0 0.0
-0.6363636363636364 -1.0 0.0
-0.6161616161616161 -1.0 0.0
-0.5959595959595959 -1.0 0.0
-0.5757575757575757 -1.0 0.0
-0.5555555555555556 -1.0 0.0
-0.5353535353535352 -1.0 0.0
-0.5151515151515151 -1.0 0.0
-0.4949494949494949 -1.0 0.0
-0.4747474747474747 -1.0 0.0
-0.4545454545454545 -1.0 0.0
-0.43434343434343425 -1.0 0.0
-0.41414141414141414 -1.0 0.0
-0.3939393939393939 -1.0 0.0
-0.3737373737373737 -1.0 0.0
-0.3535353535353535 -1.0 0.0
-0.33333333333333326 -1.0 0.0
-0.31313131313131304 -1.0 0.0
-0.2929292929292928 -1.0 0.0
-0.2727272727272727 -1.0 0.0
-0.2525252525252525 -1.0 0.0
-0.23232323232323226 -1.0 0.0
-0.21212121212121204 -1.0 0.0
-0.19191919191919182 -1.0 0.0
-0.1717171717171716 -1.0 0.0
-0.1515151515151515 -1.0 0.0
-0.13131313131313127 -1.0 0.0
-0.11111111111111105 -1.0 0.0
-0.09090909090909083 -1.0 0.0
-0.07070707070707061 -1.0 0.0
-0.050505050505050386 -1.0 0.0
-0.030303030303030276 -1.0 0.0
-0.010101010101010055 -1.0 0.0
0.010101010101010166 -1.0 0.0
0.030303030303030498 -1.0 0.0
0.05050505050505061 -1.0 0.0
0.07070707070707072 -1.0 0.0
0.09090909090909105 -1.0 0.0
0.11111111111111116 -1.0 0.0
0.1313131313131315 -1.0 0.0
0.1515151515151516 -1.0 0.0
0.1717171717171717 -1.0 0.0
0.19191919191919204 -1.0 0.0
0.21212121212121215 -1.0 0.0
0.2323232323232325 -1.0 0.0
0.2525252525252526 -1.0 0.0
0.27272727272727293 -1.0 0.0
0.29292929292929304 -1.0 0.0
0.31313131313131315 -1.0 0.0
0.3333333333333335 -1.0 0.0
0.3535353535353536 -1.0 0.0
0.3737373737373739 -1.0 0.0
0.39393939393939403 -1.0 0.0
0.41414141414141437 -1.0 0.0
0.4343434343434345 -1.0 0.0
0.4545454545454546 -1.0 0.0
0.4747474747474749 -1.0 0.0
0.49494949494949503 -1.0 0.0
0.5151515151515154 -1.0 0.0
0.5353535353535355 -1.0 0.0
0.5555555555555556 -1.0 0.0
0.5757575757575759 -1.0 0.0
0.595959595959596 -1.0 0.0
0.6161616161616164 -1.0 0.0
0.6363636363636365 -1.0 0.0
0.6565656565656568 -1.0 0.0
0.6767676767676769 -1.0 0.0
0.696969696969697 -1.0 0.0
0.7171717171717173 -1.0 0.0
0.7373737373737375 -1.0 0.0
0.7575757575757578 -1.0 0.0
0.7777777777777779 -1.0 0.0
0.7979797979797982 -1.0 0.0
0.8181818181818183 -1.0 0.0
0.8383838383838385 -1.0 0.0
0.8585858585858588 -1.0 0.0
0.8787878787878789 -1.0 0.0
0.8989898989898992 -1.0 0.0
0.9191919191919193 -1.0 0.0
0.9393939393939394 -1.0 0.0
0.9595959595959598 -1.0 0.0
0.9797979797979799 -1.0 0.0
1.0 -1.0 0.0
-1.0 -0.9797979797979798 0.0
-0.9797979797979798 -0.9797979797979798 0.0
-0.9595959595959596 -0.9797979797979798 0.0
-0.9393939393939394 -0.9797979797979798 0.0
-0.9191919191919192 -0.9797979797979798 0.0
-0.898989898989899 -0.9797979797979798 0.0
-0.8787878787878788 -0.9797979797979798 0.0
-0.8585858585858586 -0.9797979797979798 0.0
-0.8383838383838383 -0.9797979797979798 0.0
-0.8181818181818181 -0.9797979797979798 0.0
-0.797979797979798 -0.9797979797979798 0.0
-0.7777777777777778 -0.9797979797979798 0.0
-0.7575757575757576 -0.9797979797979798 0.0
-0.7373737373737373 -0.9797979797979798 0.0
-0.7171717171717171 -0.9797979797979798 0.0
-0.696969696969697 -0.9797979797979798 0.0
-0.6767676767676767 -0.9797979797979798 0.0
-0.6565656565656566 -0.9797979797979798 0.0
-0.6363636363636364 -0.9797979797979798 0.0
-0.6161616161616161 -0.9797979797979798 0.0
-0.5959595959595959 -0.9797979797979798 0.0
-0.5757575757575757 -0.9797979797979798 0.0
-0.5555555555555556 -0.9797979797979798 0.0
-0.5353535353535352 -0.9797979797979798 0.0
-0.5151515151515151 -0.9797979797979798 0.0
-0.4949494949494949 -0.9797979797979798 0.0
-0.4747474747474747 -0.9797979797979798 0.0
-0.4545454545454545 -0.9797979797979798 0.0
-0.43434343434343425 -0.9797979797979798 0.0
-0.41414141414141414 -0.9797979797979798 0.0
-0.3939393939393939 -0.9797979797979798 0.0
-0.3737373737373737 -0.9797979797979798 0.0
-0.3535353535353535 -0.9797979797979798 0.0
-0.33333333333333326 -0.9797979797979798 0.0
-0.31313131313131304 -0.9797979797979798 0.0
-0.2929292929292928 -0.9797979797979798 0.0
-0.2727272727272727 -0.9797979797979798 0.0
-0.2525252525252525 -0.9797979797979798 0.0
-0.23232323232323226 -0.9797979797979798 0.0
-0.21212121212121204 -0.9797979797979798 0.0
-0.19191919191919182 -0.9797979797979798 0.0
-0.1717171717171716 -0.9797979797979798 0.0
-0.1515151515151515 -0.9797979797979798 0.0
-0.13131313131313127 -0.9797979797979798 0.0
-0.11111111111111105 -0.9797979797979798 0.0
-0.09090909090909083 -0.9797979797979798 0.0
-0.07070707070707061 -0.9797979797979798 0.0
-0.050505050505050386 -0.9797979797979798 0.0
-0.030303030303030276 -0.9797979797979798 0.0
-0.010101010101010055 -0.9797979797979798 0.0
0.010101010101010166 -0.9797979797979798 0.0
0.030303030303030498 -0.9797979797979798 0.0
0.05050505050505061 -0.9797979797979798 0.0
0.07070707070707072 -0.9797979797979798 0.0
0.09090909090909105 -0.9797979797979798 0.0
0.11111111111111116 -0.9797979797979798 0.0
0.1313131313131315 -0.9797979797979798 0.0
0.1515151515151516 -0.9797979797979798 0.0
0.1717171717171717 -0.9797979797979798 0.0
0.19191919191919204 -0.9797979797979798 0.0
0.21212121212121215 -0.9797979797979798 0.0
0.2323232323232325 -0.9797979797979798 0.0
0.2525252525252526 -0.9797979797979798 0.0
0.27272727272727293 -0.9797979797979798 0.0
0.29292929292929304 -0.9797979797979798 0.0
0.31313131313131315 -0.9797979797979798 0.0
0.3333333333333335 -0.9797979797979798 0.0
0.3535353535353536 -0.9797979797979798 0.0
0.3737373737373739 -0.9797979797979798 0.0
0.39393939393939403 -0.9797979797979798 0.0
0.41414141414141437 -0.9797979797979798 0.0
0.4343434343434345 -0.9797979797979798 0.0
0.4545454545454546 -0.9797979797979798 0.0
0.4747474747474749 -0.9797979797979798 0.0
0.49494949494949503 -0.9797979797979798 0.0
0.5151515151515154 -0.9797979797979798 0.0
0.5353535353535355 -0.9797979797979798 0.0
0.5555555555555556 -0.9797979797979798 0.0
0.5757575757575759 -0.9797979797979798 0.0
0.595959595959596 -0.9797979797979798 0.0
0.6161616161616164 -0.9797979797979798 0.0
0.6363636363636365 -0.9797979797979798 0.0
0.6565656565656568 -0.9797979797979798 0.0
0.6767676767676769 -0.9797979797979798 0.0
0.696969696969697 -0.9797979797979798 0.0
0.7171717171717173 -0.9797979797979798 0.0
0.7373737373737375 -0.9797979797979798 0.0
0.7575757575757578 -0.9797979797979798 0.0
0.7777777777777779 -0.9797979797979798 0.0
0.7979797979797982 -0.9797979797979798 0.0
0.8181818181818183 -0.9797979797979798 0.0
0.8383838383838385 -0.9797979797979798 0.0
0.8585858585858588 -0.9797979797979798 0.0
0.8787878787878789 -0.9797979797979798 0.0
0.8989898989898992 -0.9797979797979798 0.0
0.9191919191919193 -0.9797979797979798 0.0
0.9393939393939394 -0.9797979797979798 0.0
0.9595959595959598 -0.9797979797979798 0.0
0.9797979797979799 -0.9797979797979798 0.0
1.0 -0.9797979797979798 0.0
-1.0 -0.9595959595959596 0.0
-0.9797979797979798 -0.9595959595959596 0.0
-0.9595959595959596 -0.9595959595959596 0.0
-0.9393939393939394 -0.9595959595959596 0.0
-0.9191919191919192 -0.9595959595959596 0.0
-0.898989898989899 -0.9595959595959596 0.0
-0.8787878787878788 -0.9595959595959596 0.0
-0.8585858585858586 -0.9595959595959596 0.0
-0.8383838383838383 -0.9595959595959596 0.0
-0.8181818181818181 -0.9595959595959596 0.0
-0.797979797979798 -0.9595959595959596 0.0
-0.7777777777777778 -0.9595959595959596 0.0
-0.7575757575757576 -0.9595959595959596 0.0
-0.7373737373737373 -0.9595959595959596 0.0
-0.7171717171717171 -0.9595959595959596 0.0
-0.696969696969697 -0.9595959595959596 0.0
-0.6767676767676767 -0.9595959595959596 0.0
-0.6565656565656566 -0.9595959595959596 0.0
-0.6363636363636364 -0.9595959595959596 0.0
-0.6161616161616161 -0.9595959595959596 0.0
-0.5959595959595959 -0.9595959595959596 0.0
-0.5757575757575757 -0.9595959595959596 0.0
-0.5555555555555556 -0.9595959595959596 0.0
-0.5353535353535352 -0.9595959595959596 0.0
-0.5151515151515151 -0.9595959595959596 0.0
-0.4949494949494949 -0.9595959595959596 0.0
-0.4747474747474747 -0.9595959595959596 0.0
-0.4545454545454545 -0.9595959595959596 0.0
-0.43434343434343425 -0.9595959595959596 0.0
-0.41414141414141414 -0.9595959595959596 0.0
-0.3939393939393939 -0.9595959595959596 0.0
-0.3737373737373737 -0.9595959595959596 0.0
-0.3535353535353535 -0.9595959595959596 0.0
-0.33333333333333326 -0.9595959595959596 0.0
-0.31313131313131304 -0.9595959595959596 0.0
-0.2929292929292928 -0.9595959595959596 0.0
-0.2727272727272727 -0.9595959595959596 0.0
-0.2525252525252525 -0.9595959595959596 0.0
-0.23232323232323226 -0.9595959595959596 0.0
-0.21212121212121204 -0.9595959595959596 0.0
-0.19191919191919182 -0.9595959595959596 0.0
-0.1717171717171716 -0.9595959595959596 0.0
-0.1515151515151515 -0.9595959595959596 0.0
-0.13131313131313127 -0.9595959595959596 0.0
-0.11111111111111105 -0.9595959595959596 0.0
-0.09090909090909083 -0.9595959595959596 0.0
-0.07070707070707061 -0.9595959595959596 0.0
-0.050505050505050386 -0.9595959595959596 0.0
-0.030303030303030276 -0.9595959595959596 0.0
-0.010101010101010055 -0.9595959595959596 0.0
0.010101010101010166 -0.9595959595959596 0.0
0.030303030303030498 -0.9595959595959596 0.0
0.05050505050505061 -0.9595959595959596 0.0
0.07070707070707072 -0.9595959595959596 0.0
0.09090909090909105 -0.9595959595959596 0.0
0.11111111111111116 -0.9595959595959596 0.0
0.1313131313131315 -0.9595959595959596 0.0
0.1515151515151516 -0.9595959595959596 0.0
0.1717171717171717 -0.9595959595959596 0.0
0.19191919191919204 -0.9595959595959596 0.0
0.21212121212121215 -0.9595959595959596 0.0
[...]
POINT_DATA 10000
SCALARS u float 1
LOOKUP_TABLE default
0.0001560002565383911
0.00014653801918029785
0.00013679265975952148
0.00012692809104919434
0.0001169443130493164
0.00010706484317779541
9.723007678985596e-05
8.767843246459961e-05
7.846951484680176e-05
6.967782974243164e-05
6.154179573059082e-05
5.392730236053467e-05
4.713237285614014e-05
4.1112303733825684e-05
3.571808338165283e-05
3.123283386230469e-05
2.7477741241455078e-05
2.4393200874328613e-05
2.1889805793762207e-05
1.9937753677368164e-05
1.8328428268432617e-05
1.7061829566955566e-05
1.6003847122192383e-05
1.4930963516235352e-05
1.3887882232666016e-05
1.2859702110290527e-05
1.1712312698364258e-05
1.049041748046875e-05
9.417533874511719e-06
8.374452590942383e-06
7.510185241699219e-06
6.884336471557617e-06
6.660819053649902e-06
6.839632987976074e-06
7.510185241699219e-06
8.657574653625488e-06
1.0207295417785645e-05
1.2233853340148926e-05
1.4603137969970703e-05
1.722574234008789e-05
2.0071864128112793e-05
2.3037195205688477e-05
2.6151537895202637e-05
2.9295682907104492e-05
3.236532211303711e-05
3.5315752029418945e-05
3.816187381744385e-05
4.060566425323486e-05
4.273653030395508e-05
4.4286251068115234e-05
4.522502422332764e-05
4.5612454414367676e-05
4.544854164123535e-05
4.500150680541992e-05
4.45246696472168e-05
4.4539570808410645e-05
4.534423351287842e-05
4.747509956359863e-05
5.111098289489746e-05
5.650520324707031e-05
6.352365016937256e-05
7.18533992767334e-05
8.082389831542969e-05
8.971989154815674e-05
9.740889072418213e-05
0.00010293722152709961
0.0001055598258972168
0.00010491907596588135
0.00010134279727935791
9.556114673614502e-05
8.873641490936279e-05
8.17328691482544e-05
7.537007331848145e-05
6.996095180511475e-05
6.534159183502197e-05
6.105005741119385e-05
5.6624412536621094e-05
5.179643630981445e-05
4.626810550689697e-05
4.006922245025635e-05
3.355741500854492e-05
2.7179718017578125e-05
2.1755695343017578e-05
1.798570156097412e-05
1.65402889251709e-05
1.7687678337097168e-05
2.136826515197754e-05
2.6866793632507324e-05
3.3155083656311035e-05
3.87728214263916e-05
4.220008850097656e-05
4.1991472244262695e-05
3.68952751159668e-05
2.6345252990722656e-05
1.0162591934204102e-05
-1.1116266250610352e-05
-3.629922866821289e-05
-6.410479545593262e-05
-9.28044319152832e-05
-0.00012105703353881836
0.0001563429832458496
0.00014609098434448242
0.00013566017150878906
0.00012518465518951416
0.0001147836446762085
0.00010442733764648438
9.422004222869873e-05
8.444488048553467e-05
7.499754428863525e-05
6.61015510559082e-05
5.777180194854736e-05
5.017220973968506e-05
4.328787326812744e-05
3.719329833984375e-05
3.1828880310058594e-05
2.728402614593506e-05
2.3499131202697754e-05
2.039968967437744e-05
1.786649227142334e-05
1.595914363861084e-05
1.4394521713256836e-05
1.3127923011779785e-05
1.2129545211791992e-05
1.1295080184936523e-05
1.0505318641662598e-05
9.715557098388672e-06
9.000301361083984e-06
8.27014446258545e-06
7.584691047668457e-06
7.0035457611083984e-06
6.586313247680664e-06
6.3478946685791016e-06
6.4373016357421875e-06
6.705522537231445e-06
7.316470146179199e-06
8.180737495422363e-06
9.268522262573242e-06
1.0475516319274902e-05
1.1876225471496582e-05
1.3232231140136719e-05
1.4707446098327637e-05
1.6137957572937012e-05
1.755356788635254e-05
1.9043684005737305e-05
2.0503997802734375e-05
2.2038817405700684e-05
2.352893352508545e-05
2.4959444999694824e-05
2.6419758796691895e-05
2.7611851692199707e-05
2.855062484741211e-05
2.9221177101135254e-05
2.9578804969787598e-05
2.9727816581726074e-05
2.9966235160827637e-05
3.057718276977539e-05
3.1948089599609375e-05
3.434717655181885e-05
3.822147846221924e-05
4.374980926513672e-05
5.097687244415283e-05
5.969405174255371e-05
6.940960884094238e-05
7.94827938079834e-05
8.885562419891357e-05
9.647011756896973e-05
0.00010155141353607178
0.00010342895984649658
0.00010207295417785645
9.806454181671143e-05
9.241700172424316e-05
8.61138105392456e-05
8.018314838409424e-05
7.492303848266602e-05
7.046759128570557e-05
6.635487079620361e-05
6.219744682312012e-05
5.760788917541504e-05
5.2303075790405273e-05
4.6253204345703125e-05
3.962218761444092e-05
3.2901763916015625e-05
2.6702880859375e-05
2.1845102310180664e-05
1.882016658782959e-05
1.8328428268432617e-05
2.0250678062438965e-05
2.4363398551940918e-05
2.9668211936950684e-05
3.516674041748047e-05
3.921985626220703e-05
4.051625728607178e-05
3.781914710998535e-05
3.013014793395996e-05
1.7121434211730957e-05
-9.834766387939453e-07
-2.3499131202697754e-05
-4.914402961730957e-05
-7.662177085876465e-05
-0.00010436773300170898
0.00015413761138916016
0.00014320015907287598
0.0001322329044342041
0.00012123584747314453
0.0001103430986404419
9.971857070922852e-05
8.93622636795044e-05
7.937848567962646e-05
6.993114948272705e-05
6.096065044403076e-05
5.269050598144531e-05
4.51207160949707e-05
3.835558891296387e-05
3.235042095184326e-05
2.7105212211608887e-05
2.269446849822998e-05
1.8998980522155762e-05
1.595914363861084e-05
1.3649463653564453e-05
1.17570161819458e-05
1.0386109352111816e-05
9.28342342376709e-06
8.478760719299316e-06
7.912516593933105e-06
7.420778274536133e-06
7.092952728271484e-06
6.765127182006836e-06
6.541609764099121e-06
6.4820051193237305e-06
6.4820051193237305e-06
6.631016731262207e-06
6.9141387939453125e-06
7.361173629760742e-06
7.972121238708496e-06
8.672475814819336e-06
9.47713851928711e-06
1.0162591934204102e-05
1.0907649993896484e-05
1.150369644165039e-05
1.195073127746582e-05
1.2218952178955078e-05
1.2308359146118164e-05
1.2293457984924316e-05
1.2248754501342773e-05
1.2129545211791992e-05
1.2159347534179688e-05
1.2308359146118164e-05
1.2606382369995117e-05
1.3083219528198242e-05
1.3619661331176758e-05
1.4215707778930664e-05
1.4856457710266113e-05
1.5482306480407715e-05
1.609325408935547e-05
1.6883015632629395e-05
1.798570156097412e-05
1.9758939743041992e-05
2.2411346435546875e-05
2.650916576385498e-05
3.2082200050354004e-05
3.9264559745788574e-05
4.801154136657715e-05
5.8144330978393555e-05
6.899237632751465e-05
7.960200309753418e-05
8.907914161682129e-05
9.638071060180664e-05
0.00010064244270324707
0.00010164082050323486
9.965896606445312e-05
9.548664093017578e-05
9.019672870635986e-05
8.475780487060547e-05
7.985532283782959e-05
7.56382942199707e-05
7.176399230957031e-05
6.787478923797607e-05
6.355345249176025e-05
5.841255187988281e-05
5.252659320831299e-05
4.5925378799438477e-05
3.8951635360717773e-05
3.2201409339904785e-05
2.631545066833496e-05
2.212822437286377e-05
2.0071864128112793e-05
2.034008502960205e-05
2.2917985916137695e-05
2.7164816856384277e-05
3.199279308319092e-05
3.618001937866211e-05
3.844499588012695e-05
3.746151924133301e-05
3.2067298889160156e-05
2.193450927734375e-05
6.750226020812988e-06
-1.2964010238647461e-05
-3.6388635635375977e-05
-6.221234798431396e-05
-8.909404277801514e-05
0.00014959275722503662
0.0001379847526550293
0.00012652575969696045
0.00011511147022247314
0.00010398030281066895
9.310245513916016e-05
8.265674114227295e-05
7.267296314239502e-05
6.32554292678833e-05
5.443394184112549e-05
4.632771015167236e-05
3.902614116668701e-05
3.243982791900635e-05
2.6658177375793457e-05
2.1755695343017578e-05
1.753866672515869e-05
1.4096498489379883e-05
1.1324882507324219e-05
9.194016456604004e-06
7.554888725280762e-06
6.377696990966797e-06
5.587935447692871e-06
5.140900611877441e-06
4.902482032775879e-06
4.857778549194336e-06
4.976987838745117e-06
5.245208740234375e-06
5.647540092468262e-06
6.16908073425293e-06
6.854534149169922e-06
7.62939453125e-06
8.568167686462402e-06
9.581446647644043e-06
1.0594725608825684e-05
1.163780689239502e-05
1.2531876564025879e-05
1.3262033462524414e-05
1.36643648147583e-05
1.3828277587890625e-05
1.3560056686401367e-05
1.2919306755065918e-05
1.189112663269043e-05
1.0639429092407227e-05
9.194016456604004e-06
7.703900337219238e-06
6.243586540222168e-06
4.991888999938965e-06
3.993511199951172e-06
3.337860107421875e-06
3.0100345611572266e-06
3.0249357223510742e-06
3.337860107421875e-06
3.904104232788086e-06
4.723668098449707e-06
5.826354026794434e-06
7.316470146179199e-06
9.432435035705566e-06
1.2427568435668945e-05
1.652538776397705e-05
2.1964311599731445e-05
2.9027462005615234e-05
3.764033317565918e-05
4.7653913497924805e-05
5.88148832321167e-05
7.0229172706604e-05
8.110702037811279e-05
9.021162986755371e-05
9.678304195404053e-05
0.00010013580322265625
0.00010028481483459473
9.785592555999756e-05
9.381771087646484e-05
8.912384510040283e-05
8.469820022583008e-05
8.07344913482666e-05
7.718801498413086e-05
7.356703281402588e-05
6.952881813049316e-05
6.468594074249268e-05
5.8978796005249023e-05
5.2422285079956055e-05
4.531443119049072e-05
3.810226917266846e-05
3.154575824737549e-05
2.6211142539978027e-05
2.2783875465393066e-05
2.156198024749756e-05
2.2605061531066895e-05
2.549588680267334e-05
2.9459595680236816e-05
3.3468008041381836e-05
3.6090612411499023e-05
3.631412982940674e-05
3.281235694885254e-05
2.4944543838500977e-05
1.2382864952087402e-05
-4.753470420837402e-06
-2.5793910026550293e-05
-4.9695372581481934e-05
-7.53253698348999e-05
0.00014282763004302979
0.00013065338134765625
0.00011874735355377197
0.00010706484317779541
9.572505950927734e-05
8.481740951538086e-05
7.437169551849365e-05
6.449222564697266e-05
5.532801151275635e-05
4.67449426651001e-05
3.896653652191162e-05
3.199279308319092e-05
2.580881118774414e-05
2.0384788513183594e-05
1.5810132026672363e-05
1.2010335922241211e-05
8.89599323272705e-06
6.5267086029052734e-06
4.649162292480469e-06
3.4570693969726562e-06
2.637505531311035e-06
2.250075340270996e-06
2.205371856689453e-06
2.4586915969848633e-06
2.8908252716064453e-06
3.606081008911133e-06
4.500150680541992e-06
5.5730342864990234e-06
6.8694353103637695e-06
8.285045623779297e-06
9.953975677490234e-06
1.1518597602844238e-05
1.3232231140136719e-05
1.4886260032653809e-05
1.6391277313232422e-05
1.7583370208740234e-05
1.8462538719177246e-05
1.893937587738037e-05
1.87605619430542e-05
1.811981201171875e-05
1.6868114471435547e-05
1.5079975128173828e-05
1.2740492820739746e-05
1.0222196578979492e-05
7.450580596923828e-06
4.649162292480469e-06
1.996755599975586e-06
-2.980232238769531e-07
-2.205371856689453e-06
-3.5762786865234375e-06
-4.455447196960449e-06
-4.708766937255859e-06
-4.425644874572754e-06
-3.7401914596557617e-06
-2.4884939193725586e-06
-7.897615432739258e-07
1.5795230865478516e-06
4.723668098449707e-06
8.806586265563965e-06
1.4156103134155273e-05
2.078711986541748e-05
2.8952956199645996e-05
3.865361213684082e-05
4.957616329193115e-05
6.128847599029541e-05
7.300078868865967e-05
8.356571197509766e-05
9.207427501678467e-05
9.764730930328369e-05
9.997189044952393e-05
9.948015213012695e-05
9.681284427642822e-05
9.313225746154785e-05
8.93622636795044e-05
8.584558963775635e-05
8.26418399810791e-05
7.939338684082031e-05
7.56382942199707e-05
7.112324237823486e-05
6.558001041412354e-05
5.906820297241211e-05
5.187094211578369e-05
4.4405460357666016e-05
3.72081995010376e-05
3.097951412200928e-05
2.6345252990722656e-05
2.3737549781799316e-05
2.3320317268371582e-05
2.492964267730713e-05
2.7820467948913574e-05
3.120303153991699e-05
3.3915042877197266e-05
3.471970558166504e-05
3.2588839530944824e-05
2.6598572731018066e-05
1.6301870346069336e-05
1.564621925354004e-06
-1.7255544662475586e-05
-3.917515277862549e-05
-6.330013275146484e-05
0.0001338273286819458
0.00012125074863433838
0.0001090019941329956
9.715557098388672e-05
8.577108383178711e-05
7.492303848266602e-05
6.464123725891113e-05
5.507469177246094e-05
4.6193599700927734e-05
3.810226917266846e-05
3.075599670410156e-05
2.4244189262390137e-05
1.8551945686340332e-05
1.3694167137145996e-05
9.655952453613281e-06
6.332993507385254e-06
3.725290298461914e-06
1.773238182067871e-06
4.6193599700927734e-07
-3.8743019104003906e-07
-6.854534149169922e-07
-5.513429641723633e-07
-1.1920928955078125e-07
6.854534149169922e-07
1.7881393432617188e-06
3.1739473342895508e-06
4.827976226806641e-06
6.705522537231445e-06
8.77678394317627e-06
1.1146068572998047e-05
1.354515552520752e-05
1.6108155250549316e-05
1.8596649169921875e-05
2.0906329154968262e-05
2.302229404449463e-05
2.47955322265625e-05
2.6032328605651855e-05
2.6658177375793457e-05
2.6538968086242676e-05
2.5734305381774902e-05
2.4124979972839355e-05
2.1696090698242188e-05
1.8805265426635742e-05
1.5288591384887695e-05
1.150369644165039e-05
7.539987564086914e-06
3.6656856536865234e-06
5.960464477539063e-08
-3.159046173095703e-06
-5.736947059631348e-06
-7.599592208862305e-06
-8.717179298400879e-06
-9.03010368347168e-06
-8.672475814819336e-06
-7.614493370056152e-06
-5.796551704406738e-06
-3.2633543014526367e-06
-8.940696716308594e-08
3.9637088775634766e-06
9.000301361083984e-06
1.5243887901306152e-05
2.2709369659423828e-05
3.167986869812012e-05
4.2065978050231934e-05
5.3495168685913086e-05
6.538629531860352e-05
7.687509059906006e-05
8.687376976013184e-05
9.43988561630249e-05
9.88394021987915e-05
0.00010022521018981934
9.924173355102539e-05
9.670853614807129e-05
9.3802809715271e-05
9.083747863769531e-05
8.812546730041504e-05
8.52346420288086e-05
8.183717727661133e-05
7.763504981994629e-05
7.228553295135498e-05
6.596744060516357e-05
5.869567394256592e-05
5.099177360534668e-05
4.328787326812744e-05
3.625452518463135e-05
3.059208393096924e-05
2.6747584342956543e-05
2.498924732208252e-05
2.516806125640869e-05
2.70158052444458e-05
2.9638409614562988e-05
3.2067298889160156e-05
3.3155083656311035e-05
3.191828727722168e-05
2.7313828468322754e-05
1.8805265426635742e-05
6.16908073425293e-06
-1.049041748046875e-05
-3.0502676963806152e-05
-5.30928373336792e-05
0.00012283027172088623
0.00010989606380462646
9.749829769134521e-05
8.565187454223633e-05
7.44163990020752e-05
6.376206874847412e-05
5.380809307098389e-05
4.464387893676758e-05
3.6343932151794434e-05
2.8759241104125977e-05
2.2009015083312988e-05
1.615285873413086e-05
1.1116266250610352e-05
6.854534149169922e-06
3.427267074584961e-06
7.599592208862305e-07
-1.2516975402832031e-06
-2.592802047729492e-06
-3.3229589462280273e-06
-3.516674041748047e-06
-3.2782554626464844e-06
-2.5779008865356445e-06
-1.5348196029663086e-06
0.0
1.8030405044555664e-06
3.978610038757324e-06
6.42240047454834e-06
9.194016456604004e-06
1.2189149856567383e-05
1.5407800674438477e-05
1.882016658782959e-05
2.224743366241455e-05
2.5674700736999512e-05
2.8878450393676758e-05
3.166496753692627e-05
3.407895565032959e-05
3.580749034881592e-05
3.676116466522217e-05
3.693997859954834e-05
3.6150217056274414e-05
3.440678119659424e-05
3.185868263244629e-05
2.847611904144287e-05
2.4437904357910156e-05
1.983344554901123e-05
1.49458646774292e-05
9.968876838684082e-06
5.185604095458984e-06
7.897615432739258e-07
-3.039836883544922e-06
-6.064772605895996e-06
-8.255243301391602e-06
-9.357929229736328e-06
-9.626150131225586e-06
-8.851289749145508e-06
-7.227063179016113e-06
-4.813075065612793e-06
-1.6093254089355469e-06
2.339482307434082e-06
7.078051567077637e-06
1.2755393981933594e-05
1.9475817680358887e-05
2.7418136596679688e-05
3.674626350402832e-05
4.735589027404785e-05
5.8904290199279785e-05
7.066130638122559e-05
8.161365985870361e-05
9.065866470336914e-05
9.69916582107544e-05
0.00010037422180175781
0.00010104477405548096
9.988248348236084e-05
9.79006290435791e-05
9.563565254211426e-05
9.34600830078125e-05
9.107589721679688e-05
8.809566497802734e-05
8.429586887359619e-05
7.921457290649414e-05
7.294118404388428e-05
6.571412086486816e-05
5.778670310974121e-05
4.971027374267578e-05
4.208087921142578e-05
3.540515899658203e-05
3.045797348022461e-05
2.7418136596679688e-05
2.6404857635498047e-05
2.7045607566833496e-05
2.874433994293213e-05
3.071129322052002e-05
3.17692756652832e-05
3.0994415283203125e-05
2.740323543548584e-05
2.0384788513183594e-05
9.462237358093262e-06
-5.289912223815918e-06
-2.3558735847473145e-05
-4.44948673248291e-05
0.00010989606380462646
9.687244892120361e-05
8.445978164672852e-05
7.274746894836426e-05
6.181001663208008e-05
5.157291889190674e-05
4.217028617858887e-05
3.3602118492126465e-05
2.5913119316101074e-05
1.9073486328125e-05
1.309812068939209e-05
8.016824722290039e-06
3.7401914596557617e-06
3.427267074584961e-07
-2.3543834686279297e-06
-4.291534423828125e-06
-5.587935447692871e-06
-6.16908073425293e-06
-6.258487701416016e-06
-5.796551704406738e-06
-4.872679710388184e-06
-3.4570693969726562e-06
-1.6689300537109375e-06
5.513429641723633e-07
3.1441450119018555e-06
6.154179573059082e-06
9.551644325256348e-06
1.3217329978942871e-05
1.7195940017700195e-05
2.1412968635559082e-05
2.5779008865356445e-05
3.0249357223510742e-05
3.451108932495117e-05
3.853440284729004e-05
4.225969314575195e-05
4.5299530029296875e-05
4.7594308853149414e-05
4.9114227294921875e-05
4.963576793670654e-05
4.912912845611572e-05
4.754960536956787e-05
4.4971704483032227e-05
4.141032695770264e-05
3.7044286727905273e-05
3.199279308319092e-05
2.644956111907959e-05
2.0697712898254395e-05
1.4871358871459961e-05
9.402632713317871e-06
4.4852495193481445e-06
1.7881393432617188e-07
-3.039836883544922e-06
-5.21540641784668e-06
-6.213784217834473e-06
-6.064772605895996e-06
-4.872679710388184e-06
-2.6226043701171875e-06
4.3213367462158203e-07
4.231929779052734e-06
8.657574653625488e-06
1.3694167137145996e-05
1.9535422325134277e-05
2.6360154151916504e-05
3.431737422943115e-05
4.363059997558594e-05
5.416572093963623e-05
6.55055046081543e-05
7.672607898712158e-05
8.678436279296875e-05
9.472668170928955e-05
9.989738464355469e-05
0.00010231137275695801
0.00010259449481964111
0.00010167062282562256
0.00010022521018981934
9.872019290924072e-05
9.691715240478516e-05
9.447336196899414e-05
9.101629257202148e-05
8.624792098999023e-05
8.019804954528809e-05
7.297098636627197e-05
6.493926048278809e-05
5.646049976348877e-05
4.820525646209717e-05
4.081428050994873e-05
3.479421138763428e-05
3.057718276977539e-05
2.8342008590698242e-05
2.7805566787719727e-05
2.86102294921875e-05
2.9921531677246094e-05
3.075599670410156e-05
3.018975257873535e-05
2.7254223823547363e-05
2.12937593460083e-05
1.1727213859558105e-05
-1.4454126358032227e-06
-1.8030405044555664e-05
-3.743171691894531e-05
9.524822235107422e-05
8.234381675720215e-05
7.02589750289917e-05
5.888938903808594e-05
4.844367504119873e-05
3.884732723236084e-05
3.0159950256347656e-05
2.2366642951965332e-05
1.5556812286376953e-05
9.506940841674805e-06
4.500150680541992e-06
3.2782554626464844e-07
-3.0100345611572266e-06
-5.587935447692871e-06
-7.3462724685668945e-06
-8.448958396911621e-06
-8.881092071533203e-06
-8.746981620788574e-06
-8.061528205871582e-06
-6.8694353103637695e-06
-5.155801773071289e-06
-2.995133399963379e-06
-3.5762786865234375e-07
2.637505531311035e-06
6.139278411865234e-06
9.968876838684082e-06
1.4260411262512207e-05
1.8924474716186523e-05
2.3931264877319336e-05
2.9087066650390625e-05
3.4436583518981934e-05
3.980100154876709e-05
4.4971704483032227e-05
4.99039888381958e-05
5.4329633712768555e-05
5.8069825172424316e-05
6.105005741119385e-05
6.309151649475098e-05
6.403028964996338e-05
6.39110803604126e-05
6.26295804977417e-05
6.0230493545532227e-05
5.683302879333496e-05
5.240738391876221e-05
4.725158214569092e-05
4.138052463531494e-05
3.5136938095092773e-05
2.8759241104125977e-05
2.2426247596740723e-05
1.6421079635620117e-05
1.1116266250610352e-05
6.735324859619141e-06
3.471970558166504e-06
1.475214958190918e-06
8.642673492431641e-07
1.519918441772461e-06
3.3676624298095703e-06
6.22868537902832e-06
9.775161743164062e-06
1.3887882232666016e-05
1.8402934074401855e-05
2.3305416107177734e-05
2.880394458770752e-05
3.5122036933898926e-05
4.272162914276123e-05
5.167722702026367e-05
6.191432476043701e-05
7.283687591552734e-05
8.335709571838379e-05
9.232759475708008e-05
9.900331497192383e-05
0.0001030266284942627
0.00010477006435394287
0.00010503828525543213
0.0001045912504196167
0.00010378658771514893
0.00010266900062561035
0.00010085105895996094
9.78708267211914e-05
9.350478649139404e-05
8.763372898101807e-05
8.04513692855835e-05
7.227063179016113e-05
6.35385513305664e-05
5.474686622619629e-05
4.6625733375549316e-05
3.962218761444092e-05
3.431737422943115e-05
3.0875205993652344e-05
2.9265880584716797e-05