# vtk DataFile Version 3.0
2D PINN Solution
ASCII
DATASET STRUCTURED_GRID
DIMENSIONS 100 100 1
POINTS 10000 float
-1.0 -1.0 0.0
-0.9797979797979798 -1.0 0.0
-0.9595959595959596 -1.0 0.0
-0.9393939393939394 -1.0 0.0
-0.9191919191919192 -1.0 0.0
-0.898989898989899 -1.0 0.0
-0.8787878787878788 -1.0 0.0
-0.8585858585858586 -1.0 0.0
-0.8383838383838383 -1.0 0.0
-0.8181818181818181 -1.0 0.0
-0.797979797979798 -1.0 0.0
-0.7777777777777778 -1.0 0.0
-0.7575757575757576 -1.0 0.0
-0.7373737373737373 -1.0 0.0
-0.7171717171717171 -1.0 0.0
-0.696969696969697 -1.0 0.0
-0.6767676767676767 -1.0 0.0
-0.6565656565656566 -1.0 0.0
-0.6363636363636364 -1.0 0.0
-0.6161616161616161 -1.0 0.0
-0.5959595959595959 -1.0 0.0
-0.5757575757575757 -1.0 0.0
-0.5555555555555556 -1.0 0.0
-0.5353535353535352 -1.0 0.0
-0.5151515151515151 -1.0 0.0
-0.4949494949494949 -1.0 0.0
-0.4747474747474747 -1.0 0.0
-0.4545454545454545 -1.0 0.0
-0.43434343434343425 -1.0 0.0
-0.41414141414141414 -1.0 0.0
-0.3939393939393939 -1.0 0.0
-0.3737373737373737 -1.0 0.0
-0.3535353535353535 -1.0 0.0
-0.33333333333333326 -1.0 0.0
-0.31313131313131304 -1.0 0.0
-0.2929292929292928 -1.0 0.0
-0.2727272727272727 -1.0 0.0
-0.2525252525252525 -1.0 0.0
-0.23232323232323226 -1.0 0.0
-0.21212121212121204 -1.0 0.0
-0.19191919191919182 -1.0 0.0
-0.1717171717171716 -1.0 0.0
-0.1515151515151515 -1.0 0.0
-0.13131313131313127 -1.0 0.0
-0.11111111111111105 -1.0 0.0
-0.09090909090909083 -1.0 0.0
-0.07070707070707061 -1.0 0.0
-0.050505050505050386 -1.0 0.0
-0.030303030303030276 -1.0 0.0
-0.010101010101010055 -1.0 0.0
0.010101010101010166 -1.0 0.0
0.030303030303030498 -1.0 0.0
0.05050505050505061 -1.0 0.0
0.07070707070707072 -1.0 0.0
0.09090909090909105 -1.0 0.0
0.11111111111111116 -1.0 0.0
0.1313131313131315 -1.0 0.0
0.1515151515151516 -1.0 0.0
0.1717171717171717 -1.0 0.0
0.19191919191919204 -1.0 0.0
0.21212121212121215 -1.0 0.0
0.2323232323232325 -1.0 0.0
0.2525252525252526 -1.0 0.0
0.27272727272727293 -1.0 0.0
0.29292929292929304 -1.0 0.0
0.31313131313131315 -1.0 0.0
0.3333333333333335 -1.0 0.0
0.3535353535353536 -1.0 0.0
0.3737373737373739 -1.0 0.0
0.39393939393939403 -1.0 0.0
0.41414141414141437 -1.0 0.0
0.4343434343434345 -1.0 0.0
0.4545454545454546 -1.0 0.0
0.4747474747474749 -1.0 0.0
0.49494949494949503 -1.0 0.0
0.5151515151515154 -1.0 0.0
0.5353535353535355 -1.0 0.0
0.5555555555555556 -1.0 0.0
0.5757575757575759 -1.0 0.0
0.595959595959596 -1.0 0.0
0.6161616161616164 -1.0 0.0
0.6363636363636365 -1.0 0.0
0.6565656565656568 -1.0 0.0
0.6767676767676769 -1.0 0.0
0.696969696969697 -1.0 0.0
0.7171717171717173 -1.0 0.0
0.7373737373737375 -1.0 0.0
0.7575757575757578 -1.0 0.0
0.7777777777777779 -1.0 0.0
0.7979797979797982 -1.0 0.0
0.8181818181818183 -1.0 0.0
0.8383838383838385 -1.0 0.0
0.8585858585858588 -1.0 0.0
0.8787878787878789 -1.0 0.0
0.8989898989898992 -1.0 0.0
0.9191919191919193 -1.0 0.0
0.9393939393939394 -1.0 0.0
0.9595959595959598 -1.0 0.0
0.9797979797979799 -1.0 0.0
1.0 -1.0 0.0
-1.0 -0.9797979797979798 0.0
-0.9797979797979798 -0.9797979797979798 0.0
-0.9595959595959596 -0.9797979797979798 0.0
-0.9393939393939394 -0.9797979797979798 0.0
-0.9191919191919192 -0.9797979797979798 0.0
-0.898989898989899 -0.9797979797979798 0.0
-0.8787878787878788 -0.9797979797979798 0.0
-0.8585858585858586 -0.9797979797979798 0.0
-0.8383838383838383 -0.9797979797979798 0.0
-0.8181818181818181 -0.9797979797979798 0.0
-0.797979797979798 -0.9797979797979798 0.0
-0.7777777777777778 -0.9797979797979798 0.0
-0.7575757575757576 -0.9797979797979798 0.0
-0.7373737373737373 -0.9797979797979798 0.0
-0.7171717171717171 -0.9797979797979798 0.0
-0.696969696969697 -0.9797979797979798 0.0
-0.6767676767676767 -0.9797979797979798 0.0
-0.6565656565656566 -0.9797979797979798 0.0
-0.6363636363636364 -0.9797979797979798 0.0
-0.6161616161616161 -0.9797979797979798 0.0
-0.5959595959595959 -0.9797979797979798 0.0
-0.5757575757575757 -0.9797979797979798 0.0
-0.5555555555555556 -0.9797979797979798 0.0
-0.5353535353535352 -0.9797979797979798 0.0
-0.5151515151515151 -0.9797979797979798 0.0
-0.4949494949494949 -0.9797979797979798 0.0
-0.4747474747474747 -0.9797979797979798 0.0
-0.4545454545454545 -0.9797979797979798 0.0
-0.43434343434343425 -0.9797979797979798 0.0
-0.41414141414141414 -0.9797979797979798 0.0
-0.3939393939393939 -0.9797979797979798 0.0
-0.3737373737373737 -0.9797979797979798 0.0
-0.3535353535353535 -0.9797979797979798 0.0
-0.33333333333333326 -0.9797979797979798 0.0
-0.31313131313131304 -0.9797979797979798 0.0
-0.2929292929292928 -0.9797979797979798 0.0
-0.2727272727272727 -0.9797979797979798 0.0
-0.2525252525252525 -0.9797979797979798 0.0
-0.23232323232323226 -0.9797979797979798 0.0
-0.21212121212121204 -0.9797979797979798 0.0
-0.19191919191919182 -0.9797979797979798 0.0
-0.1717171717171716 -0.9797979797979798 0.0
-0.1515151515151515 -0.9797979797979798 0.0
-0.13131313131313127 -0.9797979797979798 0.0
-0.11111111111111105 -0.9797979797979798 0.0
-0.09090909090909083 -0.9797979797979798 0.0
-0.07070707070707061 -0.9797979797979798 0.0
-0.050505050505050386 -0.9797979797979798 0.0
-0.030303030303030276 -0.9797979797979798 0.0
-0.010101010101010055 -0.9797979797979798 0.0
0.010101010101010166 -0.9797979797979798 0.0
0.030303030303030498 -0.9797979797979798 0.0
0.05050505050505061 -0.9797979797979798 0.0
0.07070707070707072 -0.9797979797979798 0.0
0.09090909090909105 -0.9797979797979798 0.0
0.11111111111111116 -0.9797979797979798 0.0
0.1313131313131315 -0.9797979797979798 0.0
0.1515151515151516 -0.9797979797979798 0.0
0.1717171717171717 -0.9797979797979798 0.0
0.19191919191919204 -0.9797979797979798 0.0
0.21212121212121215 -0.9797979797979798 0.0
0.2323232323232325 -0.9797979797979798 0.0
0.2525252525252526 -0.9797979797979798 0.0
0.27272727272727293 -0.9797979797979798 0.0
0.29292929292929304 -0.9797979797979798 0.0
0.31313131313131315 -0.9797979797979798 0.0
0.3333333333333335 -0.9797979797979798 0.0
0.3535353535353536 -0.9797979797979798 0.0
0.3737373737373739 -0.9797979797979798 0.0
0.39393939393939403 -0.9797979797979798 0.0
0.41414141414141437 -0.9797979797979798 0.0
0.4343434343434345 -0.9797979797979798 0.0
0.4545454545454546 -0.9797979797979798 0.0
0.4747474747474749 -0.9797979797979798 0.0
0.49494949494949503 -0.9797979797979798 0.0
0.5151515151515154 -0.9797979797979798 0.0
0.5353535353535355 -0.9797979797979798 0.0
0.5555555555555556 -0.9797979797979798 0.0
0.5757575757575759 -0.9797979797979798 0.0
0.595959595959596 -0.9797979797979798 0.0
0.6161616161616164 -0.9797979797979798 0.0
0.6363636363636365 -0.9797979797979798 0.0
0.6565656565656568 -0.9797979797979798 0.0
0.6767676767676769 -0.9797979797979798 0.0
0.696969696969697 -0.9797979797979798 0.0
0.7171717171717173 -0.9797979797979798 0.0
0.7373737373737375 -0.9797979797979798 0.0
0.7575757575757578 -0.9797979797979798 0.0
0.7777777777777779 -0.9797979797979798 0.0
0.7979797979797982 -0.9797979797979798 0.0
0.8181818181818183 -0.9797979797979798 0.0
0.8383838383838385 -0.9797979797979798 0.0
0.8585858585858588 -0.9797979797979798 0.0
0.8787878787878789 -0.9797979797979798 0.0
0.8989898989898992 -0.9797979797979798 0.0
0.9191919191919193 -0.9797979797979798 0.0
0.9393939393939394 -0.9797979797979798 0.0
0.9595959595959598 -0.9797979797979798 0.0
0.9797979797979799 -0.9797979797979798 0.0
1.0 -0.9797979797979798 0.0
-1.0 -0.9595959595959596 0.0
-0.9797979797979798 -0.9595959595959596 0.0
-0.9595959595959596 -0.9595959595959596 0.0
-0.9393939393939394 -0.9595959595959596 0.0
-0.9191919191919192 -0.9595959595959596 0.0
-0.898989898989899 -0.9595959595959596 0.0
-0.8787878787878788 -0.9595959595959596 0.0
-0.8585858585858586 -0.9595959595959596 0.0
-0.8383838383838383 -0.9595959595959596 0.0
-0.8181818181818181 -0.9595959595959596 0.0
-0.797979797979798 -0.9595959595959596 0.0
-0.7777777777777778 -0.9595959595959596 0.0
-0.7575757575757576 -0.9595959595959596 0.0
-0.7373737373737373 -0.9595959595959596 0.0
-0.7171717171717171 -0.9595959595959596 0.0
-0.696969696969697 -0.9595959595959596 0.0
-0.6767676767676767 -0.9595959595959596 0.0
-0.6565656565656566 -0.9595959595959596 0.0
-0.6363636363636364 -0.9595959595959596 0.0
-0.6161616161616161 -0.9595959595959596 0.0
-0.5959595959595959 -0.9595959595959596 0.0
-0.5757575757575757 -0.9595959595959596 0.0
-0.5555555555555556 -0.9595959595959596 0.0
-0.5353535353535352 -0.9595959595959596 0.0
-0.5151515151515151 -0.9595959595959596 0.0
-0.4949494949494949 -0.9595959595959596 0.0
-0.4747474747474747 -0.9595959595959596 0.0
-0.4545454545454545 -0.9595959595959596 0.0
-0.43434343434343425 -0.9595959595959596 0.0
-0.41414141414141414 -0.9595959595959596 0.0
-0.3939393939393939 -0.9595959595959596 0.0
-0.3737373737373737 -0.9595959595959596 0.0
-0.3535353535353535 -0.9595959595959596 0.0
-0.33333333333333326 -0.9595959595959596 0.0
-0.31313131313131304 -0.9595959595959596 0.0
-0.2929292929292928 -0.9595959595959596 0.0
-0.2727272727272727 -0.9595959595959596 0.0
-0.2525252525252525 -0.9595959595959596 0.0
-0.23232323232323226 -0.9595959595959596 0.0
-0.21212121212121204 -0.9595959595959596 0.0
-0.19191919191919182 -0.9595959595959596 0.0
-0.1717171717171716 -0.9595959595959596 0.0
-0.1515151515151515 -0.9595959595959596 0.0
-0.13131313131313127 -0.9595959595959596 0.0
-0.11111111111111105 -0.9595959595959596 0.0
-0.09090909090909083 -0.9595959595959596 0.0
-0.07070707070707061 -0.9595959595959596 0.0
-0.050505050505050386 -0.9595959595959596 0.0
-0.030303030303030276 -0.9595959595959596 0.0
-0.010101010101010055 -0.9595959595959596 0.0
0.010101010101010166 -0.9595959595959596 0.0
0.030303030303030498 -0.9595959595959596 0.0
0.05050505050505061 -0.9595959595959596 0.0
0.07070707070707072 -0.9595959595959596 0.0
0.09090909090909105 -0.9595959595959596 0.0
0.11111111111111116 -0.9595959595959596 0.0
0.1313131313131315 -0.9595959595959596 0.0
0.1515151515151516 -0.9595959595959596 0.0
0.1717171717171717 -0.9595959595959596 0.0
0.19191919191919204 -0.9595959595959596 0.0
0.21212121212121215 -0.9595959595959596 0.0
[...]
POINT_DATA 10000
SCALARS u float 1
LOOKUP_TABLE default
-0.00012102723121643066
-0.00013212859630584717
-0.00014260411262512207
-0.0001525580883026123
-0.0001618713140487671
-0.00017073750495910645
-0.00017917156219482422
-0.00018736720085144043
-0.00019527971744537354
-0.0002031177282333374
-0.00021089613437652588
-0.00021858513355255127
-0.00022618472576141357
-0.00023375451564788818
-0.00024107098579406738
-0.0002482384443283081
-0.00025500357151031494
-0.00026132166385650635
-0.00026710331439971924
-0.00027219951152801514
-0.00027652084827423096
-0.0002799034118652344
-0.00028236210346221924
-0.00028377771377563477
-0.00028420984745025635
-0.0002837926149368286
-0.00028249621391296387
-0.000280529260635376
-0.00027780234813690186
-0.0002746284008026123
-0.0002709031105041504
-0.0002668052911758423
-0.00026226043701171875
-0.000257343053817749
-0.00025209784507751465
-0.0002464801073074341
-0.00024053454399108887
-0.00023443996906280518
-0.00022798776626586914
-0.00022138655185699463
-0.00021460652351379395
-0.00020769238471984863
-0.00020079314708709717
-0.0001938343048095703
-0.00018683075904846191
-0.0001798868179321289
-0.00017306208610534668
-0.00016649067401885986
-0.00016003847122192383
-0.0001538395881652832
-0.00014799833297729492
-0.00014252960681915283
-0.00013746321201324463
-0.0001329183578491211
-0.00012896955013275146
-0.0001256018877029419
-0.00012287497520446777
-0.00012083351612091064
-0.0001195073127746582
-0.0001188516616821289
-0.00011880695819854736
-0.00011928379535675049
-0.0001201927661895752
-0.00012142956256866455
-0.00012287497520446777
-0.00012442469596862793
-0.00012592971324920654
-0.00012731552124023438
-0.00012861192226409912
-0.00012969970703125
-0.00013053417205810547
-0.00013127923011779785
-0.00013177096843719482
-0.0001321732997894287
-0.00013245642185211182
-0.00013266503810882568
-0.00013276934623718262
-0.0001328587532043457
-0.00013284385204315186
-0.00013275444507598877
-0.00013262033462524414
-0.00013236701488494873
-0.00013209879398345947
-0.00013181567192077637
-0.00013148784637451172
-0.00013118982315063477
-0.0001310408115386963
-0.00013107061386108398
-0.00013136863708496094
-0.00013205409049987793
-0.00013312697410583496
-0.00013472139835357666
-0.00013683736324310303
-0.00013959407806396484
-0.00014293193817138672
-0.00014676153659820557
-0.00015117228031158447
-0.00015597045421600342
-0.00016117095947265625
-0.00016643106937408447
-0.00013044476509094238
-0.00014157593250274658
-0.000151902437210083
-0.0001615285873413086
-0.00017030537128448486
-0.00017862021923065186
-0.0001862943172454834
-0.00019371509552001953
-0.0002008378505706787
-0.00020778179168701172
-0.00021457672119140625
-0.00022126734256744385
-0.0002279132604598999
-0.00023449957370758057
-0.00024090707302093506
-0.0002471059560775757
-0.00025309622287750244
-0.00025875866413116455
-0.0002640038728713989
-0.0002687126398086548
-0.0002728402614593506
-0.00027626752853393555
-0.00027889013290405273
-0.00028070807456970215
-0.00028167665004730225
-0.0002818107604980469
-0.00028111040592193604
-0.0002796351909637451
-0.0002774745225906372
-0.000274658203125
-0.0002712458372116089
-0.00026722252368927
-0.00026266276836395264
-0.0002575814723968506
-0.00025203824043273926
-0.00024615228176116943
-0.00023980438709259033
-0.00023315846920013428
-0.0002262890338897705
-0.00021910667419433594
-0.00021186470985412598
-0.000204429030418396
-0.00019694864749908447
-0.0001894235610961914
-0.00018201768398284912
-0.000174596905708313
-0.00016739964485168457
-0.0001602470874786377
-0.00015337765216827393
-0.00014674663543701172
-0.0001405179500579834
-0.00013455748558044434
-0.00012911856174468994
-0.0001242309808731079
-0.00011992454528808594
-0.00011624395847320557
-0.00011327862739562988
-0.00011110305786132812
-0.00010964274406433105
-0.00010901689529418945
-0.000109061598777771
-0.00010971724987030029
-0.00011087954044342041
-0.00011239945888519287
-0.00011417269706726074
-0.00011605024337768555
-0.00011789798736572266
-0.00011965632438659668
-0.0001211315393447876
-0.0001224428415298462
-0.00012344121932983398
-0.00012421607971191406
-0.00012478232383728027
-0.00012511014938354492
-0.00012534856796264648
-0.00012549757957458496
-0.00012549757957458496
-0.00012545287609100342
-0.0001253187656402588
-0.00012506544589996338
-0.00012482702732086182
-0.00012439489364624023
-0.00012390315532684326
-0.0001233518123626709
-0.000122755765914917
-0.0001221299171447754
-0.00012159347534179688
-0.00012111663818359375
-0.00012099742889404297
-0.0001211315393447876
-0.00012168288230895996
-0.0001227855682373047
-0.00012448430061340332
-0.00012680888175964355
-0.00012983381748199463
-0.00013349950313568115
-0.0001379251480102539
-0.00014293193817138672
-0.0001484602689743042
-0.00015430152416229248
-0.00013959407806396484
-0.00015059113502502441
-0.00016057491302490234
-0.0001696944236755371
-0.00017789006233215332
-0.00018543004989624023
-0.00019243359565734863
-0.0001989603042602539
-0.00020514428615570068
-0.0002111196517944336
-0.00021700561046600342
-0.00022274255752563477
-0.00022843480110168457
-0.0002340078353881836
-0.00023949146270751953
-0.0002449899911880493
-0.0002502351999282837
-0.00025531649589538574
-0.0002602040767669678
-0.00026470422744750977
-0.0002687722444534302
-0.0002723485231399536
-0.00027526915073394775
-0.0002775043249130249
-0.0002790093421936035
-0.00027965009212493896
-0.00027951598167419434
-0.00027865171432495117
-0.0002769678831100464
-0.00027446448802948
-0.0002712756395339966
-0.00026741623878479004
-0.0002628415822982788
-0.0002575814723968506
-0.00025184452533721924
-0.00024555623531341553
-0.00023886561393737793
-0.00023177266120910645
-0.0002244114875793457
-0.0002167820930480957
-0.00020901858806610107
-0.0002011507749557495
-0.00019314885139465332
-0.00018522143363952637
-0.0001773238182067871
-0.0001694411039352417
-0.0001618117094039917
-0.00015430152416229248
-0.00014695525169372559
-0.00014001131057739258
-0.00013333559036254883
-0.00012703239917755127
-0.00012120604515075684
-0.00011590123176574707
-0.00011126697063446045
-0.00010722875595092773
-0.00010406970977783203
-0.0001016855239868164
-0.00010013580322265625
-9.948015213012695e-05
-9.959936141967773e-05
-0.0001004636287689209
-0.00010186433792114258
-0.00010371208190917969
-0.0001058429479598999
-0.0001080632209777832
-0.0001103132963180542
-0.00011239945888519287
-0.00011420249938964844
-0.00011570751667022705
-0.00011686980724334717
-0.00011776387691497803
-0.00011835992336273193
-0.00011864304542541504
-0.00011877715587615967
-0.00011886656284332275
-0.00011871755123138428
-0.00011855363845825195
-0.00011830031871795654
-0.0001179724931716919
-0.00011754035949707031
-0.0001170039176940918
-0.0001163482666015625
-0.00011558830738067627
-0.00011473894119262695
-0.00011380016803741455
-0.00011292099952697754
-0.00011210143566131592
-0.00011138617992401123
-0.00011104345321655273
-0.00011105835437774658
-0.0001115649938583374
-0.00011269748210906982
-0.00011448562145233154
-0.00011701881885528564
-0.00012038648128509521
-0.0001246035099029541
-0.00012950599193572998
-0.00013518333435058594
-0.0001414269208908081
-0.0001481771469116211
-0.00015878677368164062
-0.00016835331916809082
-0.00017686188220977783
-0.0001844167709350586
-0.00019119679927825928
-0.00019741058349609375
-0.00020304322242736816
-0.00020837783813476562
-0.00021341443061828613
-0.00021830201148986816
-0.0002231299877166748
-0.00022783875465393066
-0.00023259222507476807
-0.00023730099201202393
-0.0002419799566268921
-0.00024674832820892334
-0.00025138258934020996
-0.00025597214698791504
-0.0002603679895401001
-0.00026454031467437744
-0.0002682507038116455
-0.0002714991569519043
-0.00027424097061157227
-0.00027623772621154785
-0.00027745962142944336
-0.0002778768539428711
-0.00027748942375183105
-0.00027629733085632324
-0.00027413666248321533
-0.00027117133140563965
-0.0002673715353012085
-0.00026279687881469727
-0.0002574324607849121
-0.00025144219398498535
-0.0002448856830596924
-0.00023786723613739014
-0.00023035705089569092
-0.00022254884243011475
-0.00021444261074066162
-0.00020621716976165771
-0.00019793212413787842
-0.0001894831657409668
-0.0001811385154724121
-0.0001728534698486328
-0.0001645982265472412
-0.00015649199485778809
-0.00014866888523101807
-0.00014100968837738037
-0.00013358891010284424
-0.00012658536434173584
-0.00011992454528808594
-0.00011372566223144531
-0.00010807812213897705
-0.0001030266284942627
-9.873509407043457e-05
-9.527802467346191e-05
-9.270012378692627e-05
-9.101629257202148e-05
-9.033083915710449e-05
-9.045004844665527e-05
-9.149312973022461e-05
-9.313225746154785e-05
-9.532272815704346e-05
-9.785592555999756e-05
-0.00010052323341369629
-0.00010313093662261963
-0.0001055598258972168
-0.00010770559310913086
-0.00010944902896881104
-0.00011084973812103271
-0.00011180341243743896
-0.00011236965656280518
-0.00011266767978668213
-0.00011277198791503906
-0.00011269748210906982
-0.00011248886585235596
-0.00011217594146728516
-0.00011184811592102051
-0.00011134147644042969
-0.00011077523231506348
-0.00011011958122253418
-0.0001093149185180664
-0.00010842084884643555
-0.00010736286640167236
-0.00010623037815093994
-0.00010503828525543213
-0.00010389089584350586
-0.00010278820991516113
-0.00010187923908233643
-0.0001013725996017456
-0.00010125339031219482
-0.0001017451286315918
-0.00010292232036590576
-0.0001049041748046875
-0.00010773539543151855
-0.00011153519153594971
-0.00011622905731201172
-0.00012184679508209229
-0.0001281946897506714
-0.00015601515769958496
-0.0001661926507949829
-0.0001752227544784546
-0.00018301606178283691
-0.00018994510173797607
-0.00019600987434387207
-0.00020134449005126953
-0.0002062469720840454
-0.00021062791347503662
-0.00021472573280334473
-0.0002187192440032959
-0.00022260844707489014
-0.00022648274898529053
-0.00023037195205688477
-0.00023438036441802979
-0.00023849308490753174
-0.00024272501468658447
-0.0002471059560775757
-0.00025144219398498535
-0.00025588274002075195
-0.000260084867477417
-0.00026410818099975586
-0.0002677738666534424
-0.00027091801166534424
-0.0002734363079071045
-0.0002752244472503662
-0.00027620792388916016
-0.0002762824296951294
-0.00027549266815185547
-0.0002736002206802368
-0.00027085840702056885
-0.0002671927213668823
-0.0002625882625579834
-0.0002571791410446167
-0.0002509802579879761
-0.0002441108226776123
-0.00023671984672546387
-0.0002288818359375
-0.0002206563949584961
-0.00021219253540039062
-0.00020356476306915283
-0.00019481778144836426
-0.00018599629402160645
-0.00017723441123962402
-0.00016857683658599854
-0.00016000866889953613
-0.0001515895128250122
-0.0001433640718460083
-0.00013543665409088135
-0.00012774765491485596
-0.00012031197547912598
-0.00011335313320159912
-0.00010676681995391846
-0.00010079145431518555
-9.541213512420654e-05
-9.076297283172607e-05
-8.697807788848877e-05
-8.417665958404541e-05
-8.231401443481445e-05
-8.155405521392822e-05
-8.171796798706055e-05
-8.282065391540527e-05
-8.472800254821777e-05
-8.724629878997803e-05
-9.015202522277832e-05
-9.320676326751709e-05
-9.629130363464355e-05
-9.909272193908691e-05
-0.00010164082050323486
-0.00010368227958679199
-0.00010529160499572754
-0.00010633468627929688
-0.00010702013969421387
-0.00010721385478973389
-0.00010724365711212158
-0.00010703504085540771
-0.00010672211647033691
-0.00010624527931213379
-0.00010572373867034912
-0.00010511279106140137
-0.00010448694229125977
-0.00010374188423156738
-0.00010281801223754883
-0.00010181963443756104
-0.00010067224502563477
-9.928643703460693e-05
-9.78708267211914e-05
-9.641051292419434e-05
-9.498000144958496e-05
-9.371340274810791e-05
-9.265542030334473e-05
-9.194016456604004e-05
-9.179115295410156e-05
-9.234249591827393e-05
-9.365379810333252e-05
-9.591877460479736e-05
-9.913742542266846e-05
-0.00010339915752410889
-0.0001087188720703125
-0.00011499226093292236
-0.0001630634069442749
-0.00017271935939788818
-0.00018106400966644287
-0.00018824636936187744
-0.00019444525241851807
-0.00019979476928710938
-0.000204429030418396
-0.0002084672451019287
-0.00021204352378845215
-0.00021529197692871094
-0.00021842122077941895
-0.00022149085998535156
-0.0002245008945465088
-0.00022771954536437988
-0.0002310723066329956
-0.0002346336841583252
-0.0002384483814239502
-0.00024253129959106445
-0.00024677813053131104
-0.00025121867656707764
-0.000255584716796875
-0.0002599954605102539
-0.00026397407054901123
-0.0002675950527191162
-0.0002706199884414673
-0.00027292966842651367
-0.00027444958686828613
-0.0002750009298324585
-0.00027452409267425537
-0.0002730339765548706
-0.00027045607566833496
-0.0002668648958206177
-0.00026226043701171875
-0.00025679171085357666
-0.000250399112701416
-0.00024332106113433838
-0.00023566186428070068
-0.00022740662097930908
-0.00021882355213165283
-0.00020998716354370117
-0.00020094215869903564
-0.00019183754920959473
-0.00018268823623657227
-0.00017358362674713135
-0.00016458332538604736
-0.000155717134475708
-0.00014701485633850098
-0.00013856589794158936
-0.0001302659511566162
-0.00012233853340148926
-0.00011467933654785156
-0.00010736286640167236
-0.00010044872760772705
-9.413063526153564e-05
-8.842349052429199e-05
-8.346140384674072e-05
-7.934868335723877e-05
-7.617473602294922e-05
-7.417798042297363e-05
-7.320940494537354e-05
-7.334351539611816e-05
-7.453560829162598e-05
-7.66068696975708e-05
-7.937848567962646e-05
-8.268654346466064e-05
-8.626282215118408e-05
-8.971989154815674e-05
-9.305775165557861e-05
-9.591877460479736e-05
-9.828805923461914e-05
-0.00010016560554504395
-0.0001013725996017456
-0.0001020580530166626
-0.00010235607624053955
-0.00010229647159576416
-0.00010187923908233643
-0.00010144710540771484
-0.00010079145431518555
-0.00010009109973907471
-9.936094284057617e-05
-9.857118129730225e-05
-9.767711162567139e-05
-9.672343730926514e-05
-9.563565254211426e-05
-9.435415267944336e-05
-9.293854236602783e-05
-9.134411811828613e-05
-8.971989154815674e-05
-8.80509614944458e-05
-8.639693260192871e-05
-8.493661880493164e-05
-8.377432823181152e-05
-8.302927017211914e-05
-8.289515972137451e-05
-8.353590965270996e-05
-8.516013622283936e-05
-8.7738037109375e-05
-9.140372276306152e-05
-9.626150131225586e-05
-0.00010226666927337646
-0.00016927719116210938
-0.00017824769020080566
-0.00018593668937683105
-0.00019253790378570557
-0.00019809603691101074
-0.00020270049571990967
-0.0002066493034362793
-0.00020998716354370117
-0.00021280348300933838
-0.00021536648273468018
-0.00021766126155853271
-0.0002199113368988037
-0.00022223591804504395
-0.0002247542142868042
-0.00022749602794647217
-0.00023061037063598633
-0.00023402273654937744
-0.00023789703845977783
-0.00024214386940002441
-0.00024659931659698486
-0.0002512037754058838
-0.0002558380365371704
-0.00026026368141174316
-0.00026439130306243896
-0.00026789307594299316
-0.00027070939540863037
-0.0002726614475250244
-0.0002736598253250122
-0.0002735704183578491
-0.0002722740173339844
-0.00026997923851013184
-0.0002664327621459961
-0.00026191771030426025
-0.000256270170211792
-0.00024975836277008057
-0.00024247169494628906
-0.00023448467254638672
-0.0002259761095046997
-0.00021702051162719727
-0.0002078413963317871
-0.00019843876361846924
-0.00018897652626037598
-0.00017949938774108887
-0.00017008185386657715
-0.0001608431339263916
-0.00015169382095336914
-0.0001427680253982544
-0.0001340806484222412
-0.00012564659118652344
-0.00011743605136871338
-0.00010952353477478027
-0.00010199844837188721
-9.478628635406494e-05
-8.817017078399658e-05
-8.209049701690674e-05
-7.674098014831543e-05
-7.227063179016113e-05
-6.876885890960693e-05
-6.6414475440979e-05
-6.525218486785889e-05
-6.529688835144043e-05
-6.64442777633667e-05
-6.873905658721924e-05
-7.179379463195801e-05
-7.541477680206299e-05
-7.937848567962646e-05
-8.338689804077148e-05
-8.71121883392334e-05
-9.046494960784912e-05
-9.323656558990479e-05
-9.532272815704346e-05
-9.678304195404053e-05
-9.7617506980896e-05
-9.79006290435791e-05
-9.772181510925293e-05
-9.720027446746826e-05
-9.655952453613281e-05
-9.572505950927734e-05
-9.487569332122803e-05
-9.398162364959717e-05
-9.299814701080322e-05
-9.199976921081543e-05
-9.094178676605225e-05
-8.977949619293213e-05
-8.845329284667969e-05
-8.702278137207031e-05
-8.539855480194092e-05
-8.365511894226074e-05
-8.179247379302979e-05
-7.991492748260498e-05
-7.808208465576172e-05
-7.659196853637695e-05
-7.534027099609375e-05
-7.468461990356445e-05
-7.46697187423706e-05
-7.556378841400146e-05
-7.747113704681396e-05
-8.049607276916504e-05
-8.480250835418701e-05
-9.033083915710449e-05
-0.00017455220222473145
-0.00018295645713806152
-0.00018993020057678223
-0.0001958906650543213
-0.00020082294940948486
-0.00020486116409301758
-0.00020822882652282715
-0.00021085143089294434
-0.0002130568027496338
-0.00021488964557647705
-0.0002165287733078003
-0.0002181529998779297
-0.00021979212760925293
-0.00022172927856445312
-0.00022393465042114258
-0.000226631760597229
-0.000229761004447937
-0.00023345649242401123
-0.00023761391639709473
-0.0002421736717224121
-0.0002469569444656372
-0.00025187432765960693
-0.0002567023038864136
-0.00026117265224456787
-0.00026516616344451904
-0.0002684593200683594
-0.000270843505859375
-0.00027225911617279053
-0.0002724677324295044
-0.00027154386043548584
-0.0002693086862564087
-0.0002659261226654053
-0.00026138126850128174
-0.0002557039260864258
-0.0002490729093551636
-0.00024153292179107666
-0.00023324787616729736
-0.00022451579570770264
-0.0002152770757675171
-0.00020578503608703613
-0.00019602477550506592
-0.000186234712600708
-0.0001764744520187378
-0.0001668781042098999
-0.00015726685523986816
-0.00014796853065490723
-0.00013890862464904785
-0.00013005733489990234
-0.0001214146614074707
-0.00011308491230010986
-0.00010500848293304443
-9.72747802734375e-05
-8.980929851531982e-05
-8.288025856018066e-05
-7.644295692443848e-05
-7.072091102600098e-05
-6.584823131561279e-05
-6.195902824401855e-05
-5.917251110076904e-05
-5.774199962615967e-05
-5.759298801422119e-05
-5.8710575103759766e-05
-6.099045276641846e-05
-6.42240047454834e-05
-6.818771362304688e-05
-7.258355617523193e-05
-7.706880569458008e-05
-8.134543895721436e-05
-8.513033390045166e-05
-8.834898471832275e-05
-9.079277515411377e-05
-9.247660636901855e-05
-9.337067604064941e-05
-9.375810623168945e-05
-9.353458881378174e-05
-9.292364120483398e-05
-9.205937385559082e-05
-9.103119373321533e-05
-8.994340896606445e-05
-8.888542652130127e-05
-8.775293827056885e-05
-8.662045001983643e-05
-8.550286293029785e-05
-8.422136306762695e-05
-8.291006088256836e-05
-8.144974708557129e-05
-7.97957181930542e-05
-7.799267768859863e-05
-7.608532905578613e-05
-7.408857345581055e-05
-7.212162017822266e-05
-7.030367851257324e-05
-6.875395774841309e-05
-6.759166717529297e-05
-6.701052188873291e-05
-6.733834743499756e-05
-6.854534149169922e-05
-7.086992263793945e-05
-7.452070713043213e-05
-7.949769496917725e-05
-0.00017908215522766113
-0.00018669664859771729
-0.00019319355487823486
-0.00019851326942443848
-0.00020295381546020508
-0.00020647048950195312
-0.0002092123031616211
-0.00021135807037353516
-0.0002130270004272461
-0.0002142190933227539
-0.00021529197692871094
-0.00021627545356750488
-0.00021734833717346191
-0.0002187192440032959
-0.00022046267986297607
-0.00022280216217041016
-0.00022567808628082275
-0.00022917985916137695
-0.00023324787616729736
-0.00023791193962097168
-0.0002429187297821045
-0.0002481043338775635
-0.00025323033332824707
-0.00025816261768341064
-0.00026257336139678955
-0.0002662539482116699
-0.00026907026767730713
-0.00027079880237579346
-0.0002713799476623535
-0.000270649790763855
-0.00026863813400268555
-0.0002653151750564575
-0.00026078522205352783
-0.00025503337383270264
-0.00024822354316711426
-0.0002405792474746704
-0.00023214519023895264
-0.00022304058074951172
-0.00021351873874664307
-0.00020369887351989746
-0.00019370019435882568
-0.00018356740474700928
-0.0001735985279083252
-0.0001636892557144165
-0.00015398859977722168
-0.00014448165893554688
-0.00013527274131774902
-0.00012634694576263428