# vtk DataFile Version 3.0
2D PINN Solution
ASCII
DATASET STRUCTURED_GRID
DIMENSIONS 100 100 1
POINTS 10000 float
-1.0 -1.0 0.0
-0.9797979797979798 -1.0 0.0
-0.9595959595959596 -1.0 0.0
-0.9393939393939394 -1.0 0.0
-0.9191919191919192 -1.0 0.0
-0.898989898989899 -1.0 0.0
-0.8787878787878788 -1.0 0.0
-0.8585858585858586 -1.0 0.0
-0.8383838383838383 -1.0 0.0
-0.8181818181818181 -1.0 0.0
-0.797979797979798 -1.0 0.0
-0.7777777777777778 -1.0 0.0
-0.7575757575757576 -1.0 0.0
-0.7373737373737373 -1.0 0.0
-0.7171717171717171 -1.0 0.0
-0.696969696969697 -1.0 0.0
-0.6767676767676767 -1.0 0.0
-0.6565656565656566 -1.0 0.0
-0.6363636363636364 -1.0 0.0
-0.6161616161616161 -1.0 0.0
-0.5959595959595959 -1.0 0.0
-0.5757575757575757 -1.0 0.0
-0.5555555555555556 -1.0 0.0
-0.5353535353535352 -1.0 0.0
-0.5151515151515151 -1.0 0.0
-0.4949494949494949 -1.0 0.0
-0.4747474747474747 -1.0 0.0
-0.4545454545454545 -1.0 0.0
-0.43434343434343425 -1.0 0.0
-0.41414141414141414 -1.0 0.0
-0.3939393939393939 -1.0 0.0
-0.3737373737373737 -1.0 0.0
-0.3535353535353535 -1.0 0.0
-0.33333333333333326 -1.0 0.0
-0.31313131313131304 -1.0 0.0
-0.2929292929292928 -1.0 0.0
-0.2727272727272727 -1.0 0.0
-0.2525252525252525 -1.0 0.0
-0.23232323232323226 -1.0 0.0
-0.21212121212121204 -1.0 0.0
-0.19191919191919182 -1.0 0.0
-0.1717171717171716 -1.0 0.0
-0.1515151515151515 -1.0 0.0
-0.13131313131313127 -1.0 0.0
-0.11111111111111105 -1.0 0.0
-0.09090909090909083 -1.0 0.0
-0.07070707070707061 -1.0 0.0
-0.050505050505050386 -1.0 0.0
-0.030303030303030276 -1.0 0.0
-0.010101010101010055 -1.0 0.0
0.010101010101010166 -1.0 0.0
0.030303030303030498 -1.0 0.0
0.05050505050505061 -1.0 0.0
0.07070707070707072 -1.0 0.0
0.09090909090909105 -1.0 0.0
0.11111111111111116 -1.0 0.0
0.1313131313131315 -1.0 0.0
0.1515151515151516 -1.0 0.0
0.1717171717171717 -1.0 0.0
0.19191919191919204 -1.0 0.0
0.21212121212121215 -1.0 0.0
0.2323232323232325 -1.0 0.0
0.2525252525252526 -1.0 0.0
0.27272727272727293 -1.0 0.0
0.29292929292929304 -1.0 0.0
0.31313131313131315 -1.0 0.0
0.3333333333333335 -1.0 0.0
0.3535353535353536 -1.0 0.0
0.3737373737373739 -1.0 0.0
0.39393939393939403 -1.0 0.0
0.41414141414141437 -1.0 0.0
0.4343434343434345 -1.0 0.0
0.4545454545454546 -1.0 0.0
0.4747474747474749 -1.0 0.0
0.49494949494949503 -1.0 0.0
0.5151515151515154 -1.0 0.0
0.5353535353535355 -1.0 0.0
0.5555555555555556 -1.0 0.0
0.5757575757575759 -1.0 0.0
0.595959595959596 -1.0 0.0
0.6161616161616164 -1.0 0.0
0.6363636363636365 -1.0 0.0
0.6565656565656568 -1.0 0.0
0.6767676767676769 -1.0 0.0
0.696969696969697 -1.0 0.0
0.7171717171717173 -1.0 0.0
0.7373737373737375 -1.0 0.0
0.7575757575757578 -1.0 0.0
0.7777777777777779 -1.0 0.0
0.7979797979797982 -1.0 0.0
0.8181818181818183 -1.0 0.0
0.8383838383838385 -1.0 0.0
0.8585858585858588 -1.0 0.0
0.8787878787878789 -1.0 0.0
0.8989898989898992 -1.0 0.0
0.9191919191919193 -1.0 0.0
0.9393939393939394 -1.0 0.0
0.9595959595959598 -1.0 0.0
0.9797979797979799 -1.0 0.0
1.0 -1.0 0.0
-1.0 -0.9797979797979798 0.0
-0.9797979797979798 -0.9797979797979798 0.0
-0.9595959595959596 -0.9797979797979798 0.0
-0.9393939393939394 -0.9797979797979798 0.0
-0.9191919191919192 -0.9797979797979798 0.0
-0.898989898989899 -0.9797979797979798 0.0
-0.8787878787878788 -0.9797979797979798 0.0
-0.8585858585858586 -0.9797979797979798 0.0
-0.8383838383838383 -0.9797979797979798 0.0
-0.8181818181818181 -0.9797979797979798 0.0
-0.797979797979798 -0.9797979797979798 0.0
-0.7777777777777778 -0.9797979797979798 0.0
-0.7575757575757576 -0.9797979797979798 0.0
-0.7373737373737373 -0.9797979797979798 0.0
-0.7171717171717171 -0.9797979797979798 0.0
-0.696969696969697 -0.9797979797979798 0.0
-0.6767676767676767 -0.9797979797979798 0.0
-0.6565656565656566 -0.9797979797979798 0.0
-0.6363636363636364 -0.9797979797979798 0.0
-0.6161616161616161 -0.9797979797979798 0.0
-0.5959595959595959 -0.9797979797979798 0.0
-0.5757575757575757 -0.9797979797979798 0.0
-0.5555555555555556 -0.9797979797979798 0.0
-0.5353535353535352 -0.9797979797979798 0.0
-0.5151515151515151 -0.9797979797979798 0.0
-0.4949494949494949 -0.9797979797979798 0.0
-0.4747474747474747 -0.9797979797979798 0.0
-0.4545454545454545 -0.9797979797979798 0.0
-0.43434343434343425 -0.9797979797979798 0.0
-0.41414141414141414 -0.9797979797979798 0.0
-0.3939393939393939 -0.9797979797979798 0.0
-0.3737373737373737 -0.9797979797979798 0.0
-0.3535353535353535 -0.9797979797979798 0.0
-0.33333333333333326 -0.9797979797979798 0.0
-0.31313131313131304 -0.9797979797979798 0.0
-0.2929292929292928 -0.9797979797979798 0.0
-0.2727272727272727 -0.9797979797979798 0.0
-0.2525252525252525 -0.9797979797979798 0.0
-0.23232323232323226 -0.9797979797979798 0.0
-0.21212121212121204 -0.9797979797979798 0.0
-0.19191919191919182 -0.9797979797979798 0.0
-0.1717171717171716 -0.9797979797979798 0.0
-0.1515151515151515 -0.9797979797979798 0.0
-0.13131313131313127 -0.9797979797979798 0.0
-0.11111111111111105 -0.9797979797979798 0.0
-0.09090909090909083 -0.9797979797979798 0.0
-0.07070707070707061 -0.9797979797979798 0.0
-0.050505050505050386 -0.9797979797979798 0.0
-0.030303030303030276 -0.9797979797979798 0.0
-0.010101010101010055 -0.9797979797979798 0.0
0.010101010101010166 -0.9797979797979798 0.0
0.030303030303030498 -0.9797979797979798 0.0
0.05050505050505061 -0.9797979797979798 0.0
0.07070707070707072 -0.9797979797979798 0.0
0.09090909090909105 -0.9797979797979798 0.0
0.11111111111111116 -0.9797979797979798 0.0
0.1313131313131315 -0.9797979797979798 0.0
0.1515151515151516 -0.9797979797979798 0.0
0.1717171717171717 -0.9797979797979798 0.0
0.19191919191919204 -0.9797979797979798 0.0
0.21212121212121215 -0.9797979797979798 0.0
0.2323232323232325 -0.9797979797979798 0.0
0.2525252525252526 -0.9797979797979798 0.0
0.27272727272727293 -0.9797979797979798 0.0
0.29292929292929304 -0.9797979797979798 0.0
0.31313131313131315 -0.9797979797979798 0.0
0.3333333333333335 -0.9797979797979798 0.0
0.3535353535353536 -0.9797979797979798 0.0
0.3737373737373739 -0.9797979797979798 0.0
0.39393939393939403 -0.9797979797979798 0.0
0.41414141414141437 -0.9797979797979798 0.0
0.4343434343434345 -0.9797979797979798 0.0
0.4545454545454546 -0.9797979797979798 0.0
0.4747474747474749 -0.9797979797979798 0.0
0.49494949494949503 -0.9797979797979798 0.0
0.5151515151515154 -0.9797979797979798 0.0
0.5353535353535355 -0.9797979797979798 0.0
0.5555555555555556 -0.9797979797979798 0.0
0.5757575757575759 -0.9797979797979798 0.0
0.595959595959596 -0.9797979797979798 0.0
0.6161616161616164 -0.9797979797979798 0.0
0.6363636363636365 -0.9797979797979798 0.0
0.6565656565656568 -0.9797979797979798 0.0
0.6767676767676769 -0.9797979797979798 0.0
0.696969696969697 -0.9797979797979798 0.0
0.7171717171717173 -0.9797979797979798 0.0
0.7373737373737375 -0.9797979797979798 0.0
0.7575757575757578 -0.9797979797979798 0.0
0.7777777777777779 -0.9797979797979798 0.0
0.7979797979797982 -0.9797979797979798 0.0
0.8181818181818183 -0.9797979797979798 0.0
0.8383838383838385 -0.9797979797979798 0.0
0.8585858585858588 -0.9797979797979798 0.0
0.8787878787878789 -0.9797979797979798 0.0
0.8989898989898992 -0.9797979797979798 0.0
0.9191919191919193 -0.9797979797979798 0.0
0.9393939393939394 -0.9797979797979798 0.0
0.9595959595959598 -0.9797979797979798 0.0
0.9797979797979799 -0.9797979797979798 0.0
1.0 -0.9797979797979798 0.0
-1.0 -0.9595959595959596 0.0
-0.9797979797979798 -0.9595959595959596 0.0
-0.9595959595959596 -0.9595959595959596 0.0
-0.9393939393939394 -0.9595959595959596 0.0
-0.9191919191919192 -0.9595959595959596 0.0
-0.898989898989899 -0.9595959595959596 0.0
-0.8787878787878788 -0.9595959595959596 0.0
-0.8585858585858586 -0.9595959595959596 0.0
-0.8383838383838383 -0.9595959595959596 0.0
-0.8181818181818181 -0.9595959595959596 0.0
-0.797979797979798 -0.9595959595959596 0.0
-0.7777777777777778 -0.9595959595959596 0.0
-0.7575757575757576 -0.9595959595959596 0.0
-0.7373737373737373 -0.9595959595959596 0.0
-0.7171717171717171 -0.9595959595959596 0.0
-0.696969696969697 -0.9595959595959596 0.0
-0.6767676767676767 -0.9595959595959596 0.0
-0.6565656565656566 -0.9595959595959596 0.0
-0.6363636363636364 -0.9595959595959596 0.0
-0.6161616161616161 -0.9595959595959596 0.0
-0.5959595959595959 -0.9595959595959596 0.0
-0.5757575757575757 -0.9595959595959596 0.0
-0.5555555555555556 -0.9595959595959596 0.0
-0.5353535353535352 -0.9595959595959596 0.0
-0.5151515151515151 -0.9595959595959596 0.0
-0.4949494949494949 -0.9595959595959596 0.0
-0.4747474747474747 -0.9595959595959596 0.0
-0.4545454545454545 -0.9595959595959596 0.0
-0.43434343434343425 -0.9595959595959596 0.0
-0.41414141414141414 -0.9595959595959596 0.0
-0.3939393939393939 -0.9595959595959596 0.0
-0.3737373737373737 -0.9595959595959596 0.0
-0.3535353535353535 -0.9595959595959596 0.0
-0.33333333333333326 -0.9595959595959596 0.0
-0.31313131313131304 -0.9595959595959596 0.0
-0.2929292929292928 -0.9595959595959596 0.0
-0.2727272727272727 -0.9595959595959596 0.0
-0.2525252525252525 -0.9595959595959596 0.0
-0.23232323232323226 -0.9595959595959596 0.0
-0.21212121212121204 -0.9595959595959596 0.0
-0.19191919191919182 -0.9595959595959596 0.0
-0.1717171717171716 -0.9595959595959596 0.0
-0.1515151515151515 -0.9595959595959596 0.0
-0.13131313131313127 -0.9595959595959596 0.0
-0.11111111111111105 -0.9595959595959596 0.0
-0.09090909090909083 -0.9595959595959596 0.0
-0.07070707070707061 -0.9595959595959596 0.0
-0.050505050505050386 -0.9595959595959596 0.0
-0.030303030303030276 -0.9595959595959596 0.0
-0.010101010101010055 -0.9595959595959596 0.0
0.010101010101010166 -0.9595959595959596 0.0
0.030303030303030498 -0.9595959595959596 0.0
0.05050505050505061 -0.9595959595959596 0.0
0.07070707070707072 -0.9595959595959596 0.0
0.09090909090909105 -0.9595959595959596 0.0
0.11111111111111116 -0.9595959595959596 0.0
0.1313131313131315 -0.9595959595959596 0.0
0.1515151515151516 -0.9595959595959596 0.0
0.1717171717171717 -0.9595959595959596 0.0
0.19191919191919204 -0.9595959595959596 0.0
0.21212121212121215 -0.9595959595959596 0.0
[...]
POINT_DATA 10000
SCALARS u float 1
LOOKUP_TABLE default
-8.797645568847656e-05
-0.00010035932064056396
-0.00011238455772399902
-0.00012390315532684326
-0.00013467669486999512
-0.00014463067054748535
-0.00015366077423095703
-0.00016170740127563477
-0.00016874074935913086
-0.00017495453357696533
-0.00018030405044555664
-0.0001850128173828125
-0.000189170241355896
-0.00019294023513793945
-0.0001964867115020752
-0.0001999884843826294
-0.00020356476306915283
-0.0002072751522064209
-0.00021128356456756592
-0.00021561980247497559
-0.00022029876708984375
-0.00022533535957336426
-0.00023064017295837402
-0.0002361685037612915
-0.000241890549659729
-0.0002476722002029419
-0.00025360286235809326
-0.00025935471057891846
-0.00026501715183258057
-0.00027039647102355957
-0.000275343656539917
-0.00027976930141448975
-0.0002834200859069824
-0.00028628110885620117
-0.00028821825981140137
-0.0002891719341278076
-0.0002891123294830322
-0.00028805434703826904
-0.00028617680072784424
-0.0002834051847457886
-0.00027996301651000977
-0.0002759099006652832
-0.0002712756395339966
-0.00026626884937286377
-0.00026081502437591553
-0.000254899263381958
-0.00024865567684173584
-0.00024203956127166748
-0.00023503601551055908
-0.00022761523723602295
-0.0002200007438659668
-0.00021204352378845215
-0.00020392239093780518
-0.00019568204879760742
-0.0001875758171081543
-0.00017967820167541504
-0.00017216801643371582
-0.00016507506370544434
-0.00015872716903686523
-0.00015303492546081543
-0.00014810264110565186
-0.00014412403106689453
-0.00014093518257141113
-0.0001386404037475586
-0.00013715028762817383
-0.00013643503189086914
-0.00013647973537445068
-0.0001370459794998169
-0.00013810396194458008
-0.000139579176902771
-0.00014135241508483887
-0.0001433342695236206
-0.0001453608274459839
-0.00014747679233551025
-0.00014963746070861816
-0.00015166401863098145
-0.00015373528003692627
-0.00015570223331451416
-0.0001576542854309082
-0.0001595616340637207
-0.0001615285873413086
-0.00016358494758605957
-0.00016574561595916748
-0.00016804039478302002
-0.00017049908638000488
-0.0001731663942337036
-0.00017601251602172852
-0.00017909705638885498
-0.00018224120140075684
-0.0001854151487350464
-0.0001885443925857544
-0.00019153952598571777
-0.00019435584545135498
-0.0001967698335647583
-0.00019872188568115234
-0.00020012259483337402
-0.0002008676528930664
-0.00020080804824829102
-0.00020000338554382324
-0.00019834935665130615
-9.12696123123169e-05
-0.00010284781455993652
-0.00011406838893890381
-0.00012475252151489258
-0.00013472139835357666
-0.00014385581016540527
-0.00015215575695037842
-0.0001595020294189453
-0.00016605854034423828
-0.00017184019088745117
-0.00017690658569335938
-0.0001814514398574829
-0.0001856088638305664
-0.0001894831657409668
-0.0001932382583618164
-0.00019697844982147217
-0.0002008378505706787
-0.0002049654722213745
-0.00020939111709594727
-0.00021407008171081543
-0.00021907687187194824
-0.00022445619106292725
-0.00023001432418823242
-0.0002357959747314453
-0.00024175643920898438
-0.00024782121181488037
-0.00025385618209838867
-0.0002599060535430908
-0.00026570260524749756
-0.0002713054418563843
-0.0002764016389846802
-0.00028099119663238525
-0.0002847909927368164
-0.00028780102729797363
-0.0002898573875427246
-0.00029081106185913086
-0.0002907216548919678
-0.00028958916664123535
-0.00028745830059051514
-0.0002844184637069702
-0.0002804696559906006
-0.0002758800983428955
-0.0002707540988922119
-0.0002651214599609375
-0.0002590864896774292
-0.00025263428688049316
-0.00024583935737609863
-0.0002387315034866333
-0.00023131072521209717
-0.00022362172603607178
-0.00021575391292572021
-0.00020763278007507324
-0.00019948184490203857
-0.0001913905143737793
-0.00018340349197387695
-0.00017574429512023926
-0.00016848742961883545
-0.00016179680824279785
-0.00015586614608764648
-0.00015063583850860596
-0.0001462996006011963
-0.00014281272888183594
-0.000140264630317688
-0.00013853609561920166
-0.0001376718282699585
-0.00013756752014160156
-0.00013816356658935547
-0.00013928115367889404
-0.0001408308744430542
-0.00014284253120422363
-0.0001449882984161377
-0.00014731287956237793
-0.00014969706535339355
-0.00015203654766082764
-0.00015433132648468018
-0.00015649199485778809
-0.00015847384929656982
-0.00016039609909057617
-0.00016219913959503174
-0.00016386806964874268
-0.00016550719738006592
-0.00016717612743377686
-0.00016891956329345703
-0.000170782208442688
-0.00017276406288146973
-0.00017508864402770996
-0.00017756223678588867
-0.00018027424812316895
-0.00018319487571716309
-0.0001862645149230957
-0.00018933415412902832
-0.00019240379333496094
-0.000195235013961792
-0.00019781291484832764
-0.00020004808902740479
-0.00020170211791992188
-0.0002027451992034912
-0.0002030879259109497
-0.00020261108875274658
-0.00020128488540649414
-9.419023990631104e-05
-0.00010506808757781982
-0.00011549890041351318
-0.00012530386447906494
-0.0001344233751296997
-0.00014281272888183594
-0.00015038251876831055
-0.00015719234943389893
-0.00016321241855621338
-0.00016866624355316162
-0.0001735389232635498
-0.00017793476581573486
-0.00018212199211120605
-0.00018607079982757568
-0.00019000470638275146
-0.00019405782222747803
-0.00019817054271697998
-0.00020265579223632812
-0.00020739436149597168
-0.00021246075630187988
-0.00021779537200927734
-0.00022348761558532715
-0.00022932887077331543
-0.00023536384105682373
-0.00024148821830749512
-0.0002477318048477173
-0.0002539008855819702
-0.0002600252628326416
-0.00026598572731018066
-0.0002716481685638428
-0.00027695298194885254
-0.00028161704540252686
-0.00028565526008605957
-0.00028876960277557373
-0.0002909153699874878
-0.0002919435501098633
-0.00029186904430389404
-0.00029064714908599854
-0.00028833746910095215
-0.0002849698066711426
-0.0002806633710861206
-0.00027567148208618164
-0.00026994943618774414
-0.0002637505531311035
-0.000257149338722229
-0.00025016069412231445
-0.0002428889274597168
-0.0002353191375732422
-0.00022749602794647217
-0.00021950900554656982
-0.000211372971534729
-0.0002031475305557251
-0.0001948624849319458
-0.00018677115440368652
-0.00017884373664855957
-0.00017133355140686035
-0.0001643449068069458
-0.0001579970121383667
-0.00015236437320709229
-0.00014759600162506104
-0.0001436471939086914
-0.00014065206050872803
-0.00013859570026397705
-0.00013747811317443848
-0.00013713538646697998
-0.0001376122236251831
-0.00013868510723114014
-0.00014036893844604492
-0.0001424252986907959
-0.00014479458332061768
-0.0001474320888519287
-0.00015009939670562744
-0.00015278160572052002
-0.0001554042100906372
-0.00015783309936523438
-0.00016011297702789307
-0.0001621842384338379
-0.0001640617847442627
-0.00016571581363677979
-0.0001672208309173584
-0.00016865134239196777
-0.00016993284225463867
-0.0001712590456008911
-0.00017276406288146973
-0.00017440319061279297
-0.00017631053924560547
-0.00017839670181274414
-0.0001808255910873413
-0.00018349289894104004
-0.0001863539218902588
-0.00018934905529022217
-0.00019246339797973633
-0.00019550323486328125
-0.00019831955432891846
-0.00020080804824829102
-0.00020278990268707275
-0.00020420551300048828
-0.00020493566989898682
-0.00020484626293182373
-0.00020389258861541748
-9.682774543762207e-05
-0.00010693073272705078
-0.00011648237705230713
-0.0001255720853805542
-0.00013394653797149658
-0.00014157593250274658
-0.0001484900712966919
-0.00015471875667572021
-0.00016036629676818848
-0.00016546249389648438
-0.00017011165618896484
-0.0001745074987411499
-0.0001786351203918457
-0.00018274784088134766
-0.00018684566020965576
-0.0001911371946334839
-0.00019563734531402588
-0.00020040571689605713
-0.00020544230937957764
-0.00021086633205413818
-0.0002164393663406372
-0.00022237002849578857
-0.00022846460342407227
-0.00023470818996429443
-0.0002409517765045166
-0.00024728477001190186
-0.0002535879611968994
-0.00025975704193115234
-0.0002657473087310791
-0.00027148425579071045
-0.00027683377265930176
-0.00028164684772491455
-0.0002857893705368042
-0.00028905272483825684
-0.0002913624048233032
-0.00029246509075164795
-0.00029240548610687256
-0.00029109418392181396
-0.00028862059116363525
-0.0002849698066711426
-0.00028045475482940674
-0.0002750307321548462
-0.0002689063549041748
-0.0002622157335281372
-0.0002550482749938965
-0.0002475827932357788
-0.00023977458477020264
-0.00023177266120910645
-0.00022351741790771484
-0.00021523237228393555
-0.00020681321620941162
-0.00019837915897369385
-0.00019006431102752686
-0.00018189847469329834
-0.00017403066158294678
-0.00016658008098602295
-0.00015972554683685303
-0.0001536160707473755
-0.00014823675155639648
-0.00014378130435943604
-0.00014024972915649414
-0.0001377314329147339
-0.00013609230518341064
-0.0001353919506072998
-0.00013554096221923828
-0.00013647973537445068
-0.00013805925846099854
-0.00014021992683410645
-0.0001427382230758667
-0.00014556944370269775
-0.00014860928058624268
-0.00015163421630859375
-0.00015465915203094482
-0.00015749037265777588
-0.0001601874828338623
-0.00016258656978607178
-0.00016477704048156738
-0.0001666545867919922
-0.0001682490110397339
-0.00016954541206359863
-0.00017076730728149414
-0.00017185509204864502
-0.0001728534698486328
-0.00017395615577697754
-0.0001751929521560669
-0.0001766979694366455
-0.00017844140529632568
-0.0001805126667022705
-0.00018291175365447998
-0.00018562376499176025
-0.00018863379955291748
-0.00019180774688720703
-0.0001949518918991089
-0.0001980215311050415
-0.0002008676528930664
-0.00020329654216766357
-0.00020517408847808838
-0.00020638108253479004
-0.00020669400691986084
-0.00020615756511688232
-9.903311729431152e-05
-0.000108376145362854
-0.00011718273162841797
-0.0001255422830581665
-0.0001332014799118042
-0.0001401156187057495
-0.0001464933156967163
-0.00015226006507873535
-0.00015749037265777588
-0.00016233325004577637
-0.0001668184995651245
-0.00017108023166656494
-0.00017532706260681152
-0.0001795440912246704
-0.00018389523029327393
-0.00018836557865142822
-0.00019314885139465332
-0.00019815564155578613
-0.00020350515842437744
-0.0002091526985168457
-0.00021506845951080322
-0.00022117793560028076
-0.00022743642330169678
-0.00023376941680908203
-0.00024011731147766113
-0.0002464503049850464
-0.0002527385950088501
-0.0002589374780654907
-0.00026488304138183594
-0.00027066469192504883
-0.00027607381343841553
-0.0002809464931488037
-0.0002851635217666626
-0.00028859078884124756
-0.0002909451723098755
-0.00029224157333374023
-0.0002922266721725464
-0.0002909153699874878
-0.0002883225679397583
-0.0002845972776412964
-0.00027979910373687744
-0.0002740025520324707
-0.0002674907445907593
-0.00026035308837890625
-0.0002527087926864624
-0.0002446770668029785
-0.0002364814281463623
-0.00022798776626586914
-0.00021938979625701904
-0.0002107471227645874
-0.00020200014114379883
-0.0001933574676513672
-0.00018484890460968018
-0.00017656385898590088
-0.00016871094703674316
-0.00016129016876220703
-0.00015456974506378174
-0.00014859437942504883
-0.0001434236764907837
-0.0001392364501953125
-0.0001360476016998291
-0.00013384222984313965
-0.00013266503810882568
-0.00013233721256256104
-0.0001329481601715088
-0.00013430416584014893
-0.0001363605260848999
-0.000138893723487854
-0.00014190375804901123
-0.00014512240886688232
-0.00014850497245788574
-0.0001519322395324707
-0.00015524029731750488
-0.00015839934349060059
-0.00016134977340698242
-0.00016395747661590576
-0.0001661926507949829
-0.00016808509826660156
-0.0001697242259979248
-0.00017096102237701416
-0.0001719444990158081
-0.00017280876636505127
-0.00017352402210235596
-0.0001742839813232422
-0.0001751929521560669
-0.0001761913299560547
-0.00017762184143066406
-0.00017940998077392578
-0.00018152594566345215
-0.0001841336488723755
-0.00018700957298278809
-0.00019019842147827148
-0.0001935213804244995
-0.00019691884517669678
-0.00020010769367218018
-0.00020296871662139893
-0.0002053976058959961
-0.00020706653594970703
-0.0002079606056213379
-0.0002079010009765625
-0.00010091066360473633
-0.00010952353477478027
-0.0001176297664642334
-0.00012524425983428955
-0.00013218820095062256
-0.00013859570026397705
-0.00014445185661315918
-0.00014978647232055664
-0.00015470385551452637
-0.00015929341316223145
-0.00016367435455322266
-0.0001678466796875
-0.00017213821411132812
-0.00017648935317993164
-0.00018095970153808594
-0.0001856982707977295
-0.0001906752586364746
-0.00019600987434387207
-0.00020162761211395264
-0.0002075284719467163
-0.00021363794803619385
-0.00021989643573760986
-0.0002262592315673828
-0.00023262202739715576
-0.00023896992206573486
-0.0002452582120895386
-0.00025141239166259766
-0.0002574920654296875
-0.000263407826423645
-0.0002690553665161133
-0.00027446448802948
-0.00027936697006225586
-0.00028370320796966553
-0.0002872347831726074
-0.00028978288173675537
-0.00029115378856658936
-0.00029127299785614014
-0.0002900362014770508
-0.0002874433994293213
-0.00028361380100250244
-0.0002785623073577881
-0.00027254223823547363
-0.0002656877040863037
-0.00025810301303863525
-0.000250011682510376
-0.0002415478229522705
-0.00023290514945983887
-0.00022397935390472412
-0.00021497905254364014
-0.00020588934421539307
-0.00019693374633789062
-0.00018797814846038818
-0.0001792609691619873
-0.00017082691192626953
-0.00016289949417114258
-0.00015541911125183105
-0.0001487433910369873
-0.00014284253120422363
-0.00013786554336547852
-0.00013390183448791504
-0.0001309514045715332
-0.0001290440559387207
-0.00012814998626708984
-0.00012829899787902832
-0.00012931227684020996
-0.0001310110092163086
-0.00013346970081329346
-0.0001363903284072876
-0.00013974308967590332
-0.00014334917068481445
-0.00014713406562805176
-0.00015087425708770752
-0.0001544952392578125
-0.0001579970121383667
-0.0001611560583114624
-0.0001639723777770996
-0.00016640126705169678
-0.00016842782497406006
-0.00017005205154418945
-0.00017130374908447266
-0.00017221271991729736
-0.00017283856868743896
-0.00017334520816802979
-0.00017377734184265137
-0.0001742839813232422
-0.00017493963241577148
-0.00017599761486053467
-0.00017739832401275635
-0.0001792609691619873
-0.00018161535263061523
-0.0001844167709350586
-0.00018762052059173584
-0.0001911073923110962
-0.0001948028802871704
-0.0001984238624572754
-0.00020179152488708496
-0.0002048015594482422
-0.00020711123943328857
-0.0002086162567138672
-0.00020922720432281494
-0.00010244548320770264
-0.00011035799980163574
-0.00011776387691497803
-0.00012470781803131104
-0.00013110041618347168
-0.0001370161771774292
-0.00014235079288482666
-0.00014734268188476562
-0.00015197694301605225
-0.0001563429832458496
-0.00016063451766967773
-0.00016482174396514893
-0.0001691281795501709
-0.00017352402210235596
-0.00017820298671722412
-0.00018315017223358154
-0.00018835067749023438
-0.0001939237117767334
-0.00019973516464233398
-0.00020579993724822998
-0.000212058424949646
-0.00021836161613464355
-0.0002247840166091919
-0.00023108720779418945
-0.00023734569549560547
-0.0002435147762298584
-0.00024947524070739746
-0.00025537610054016113
-0.0002610832452774048
-0.00026664137840270996
-0.0002719610929489136
-0.000276908278465271
-0.0002813488245010376
-0.00028492510318756104
-0.0002876967191696167
-0.00028918683528900146
-0.0002895146608352661
-0.0002883821725845337
-0.00028586387634277344
-0.0002819746732711792
-0.00027683377265930176
-0.0002705901861190796
-0.00026345252990722656
-0.00025551021099090576
-0.0002470165491104126
-0.00023812055587768555
-0.00022897124290466309
-0.00021964311599731445
-0.0002102106809616089
-0.00020079314708709717
-0.00019143521785736084
-0.000182226300239563
-0.000173225998878479
-0.0001645982265472412
-0.0001564621925354004
-0.00014896690845489502
-0.00014224648475646973
-0.00013640522956848145
-0.00013151764869689941
-0.00012770295143127441
-0.00012506544589996338
-0.0001233518123626709
-0.00012281537055969238
-0.0001232624053955078
-0.00012455880641937256
-0.00012665987014770508
-0.00012949109077453613
-0.00013273954391479492
-0.00013643503189086914
-0.00014033913612365723
-0.00014442205429077148
-0.0001484602689743042
-0.00015240907669067383
-0.00015616416931152344
-0.00015968084335327148
-0.0001626908779144287
-0.0001653730869293213
-0.00016757845878601074
-0.00016933679580688477
-0.00017057359218597412
-0.0001713782548904419
-0.0001719743013381958
-0.0001722872257232666
-0.00017240643501281738
-0.0001725703477859497
-0.00017292797565460205
-0.0001735389232635498
-0.00017455220222473145
-0.00017602741718292236
-0.00017814338207244873
-0.0001808255910873413
-0.00018402934074401855
-0.00018766522407531738
-0.00019162893295288086
-0.00019566714763641357
-0.0001996457576751709
-0.00020325183868408203
-0.0002063363790512085
-0.0002085864543914795
-0.0002098679542541504
-0.0001036226749420166
-0.00011084973812103271
-0.00011764466762542725
-0.0001239776611328125
-0.00012986361980438232
-0.00013531744480133057
-0.00014024972915649414
-0.0001449882984161377
-0.00014935433864593506
-0.0001535564661026001
-0.0001576840877532959
-0.00016194581985473633
-0.00016626715660095215
-0.00017081201076507568
-0.00017561018466949463
-0.00018070638179779053
-0.00018614530563354492
-0.00019185245037078857
-0.00019782781600952148
-0.00020398199558258057
-0.00021028518676757812
-0.00021666288375854492
-0.00022296607494354248
-0.00022909045219421387
-0.00023518502712249756
-0.00024111568927764893
-0.0002468377351760864
-0.000252455472946167
-0.00025798380374908447
-0.0002633035182952881
-0.0002684742212295532
-0.00027339160442352295
-0.0002778470516204834
-0.00028167665004730225
-0.0002845972776412964
-0.00028637051582336426
-0.0002868771553039551
-0.00028596818447113037
-0.0002836287021636963
-0.00027979910373687744
-0.00027461349964141846
-0.0002682507038116455
-0.00026078522205352783
-0.0002525597810745239
-0.00024372339248657227
-0.00023442506790161133
-0.00022485852241516113
-0.00021502375602722168
-0.00020515918731689453
-0.00019527971744537354
-0.00018551945686340332
-0.00017592310905456543
-0.0001665949821472168
-0.0001577138900756836
-0.00014944374561309814
-0.0001417696475982666
-0.00013500452041625977
-0.0001291334629058838
-0.00012436509132385254
-0.00012072920799255371
-0.00011818110942840576
-0.00011678040027618408
-0.00011654198169708252
-0.00011727213859558105
-0.0001188814640045166
-0.00012131035327911377
-0.0001243501901626587
-0.00012794137001037598
-0.0001318603754043579
-0.00013612210750579834
-0.00014041364192962646
-0.00014473497867584229
-0.00014895200729370117
-0.0001529306173324585
-0.0001566559076309204
-0.00015997886657714844
-0.00016292929649353027
-0.0001652836799621582
-0.0001672208309173584
-0.00016860663890838623
-0.00016948580741882324
-0.000170096755027771
-0.00017020106315612793
-0.00017014145851135254
-0.00017008185386657715
-0.0001700371503829956
-0.00017029047012329102
-0.00017085671424865723
-0.00017204880714416504
-0.0001738518476486206
-0.00017628073692321777
-0.00017943978309631348
-0.00018312036991119385
-0.00018733739852905273
-0.00019180774688720703
-0.00019632279872894287
-0.0002006441354751587
-0.00020447373390197754
-0.00020763278007507324
-0.00020976364612579346
-0.00010445713996887207
-0.00011107325553894043
-0.00011734664440155029
-0.00012315809726715088
-0.00012856721878051758
-0.0001335442066192627
-0.0001382380723953247
-0.00014260411262512207
-0.0001468360424041748
-0.00015088915824890137
-0.00015497207641601562
-0.00015920400619506836
-0.00016355514526367188
-0.00016823410987854004
-0.00017315149307250977
-0.00017842650413513184
-0.000183984637260437
-0.00018981099128723145
-0.00019584596157073975
-0.00020210444927215576
-0.00020837783813476562
-0.00021466612815856934
-0.00022077560424804688
-0.00022679567337036133
-0.00023250281810760498
-0.00023803114891052246
-0.00024341046810150146
-0.0002487003803253174
-0.00025388598442077637
-0.00025898218154907227
-0.00026404857635498047
-0.0002689361572265625
-0.00027342140674591064
-0.00027742981910705566
-0.00028061866760253906
-0.0002826899290084839
-0.0002834498882293701
-0.0002828538417816162
-0.0002806335687637329
-0.00027698278427124023
-0.00027182698249816895
-0.00026535987854003906
-0.0002577751874923706
-0.0002492666244506836