# vtk DataFile Version 3.0
2D PINN Solution
ASCII
DATASET STRUCTURED_GRID
DIMENSIONS 100 100 1
POINTS 10000 float
-1.0 -1.0 0.0
-0.9797979797979798 -1.0 0.0
-0.9595959595959596 -1.0 0.0
-0.9393939393939394 -1.0 0.0
-0.9191919191919192 -1.0 0.0
-0.898989898989899 -1.0 0.0
-0.8787878787878788 -1.0 0.0
-0.8585858585858586 -1.0 0.0
-0.8383838383838383 -1.0 0.0
-0.8181818181818181 -1.0 0.0
-0.797979797979798 -1.0 0.0
-0.7777777777777778 -1.0 0.0
-0.7575757575757576 -1.0 0.0
-0.7373737373737373 -1.0 0.0
-0.7171717171717171 -1.0 0.0
-0.696969696969697 -1.0 0.0
-0.6767676767676767 -1.0 0.0
-0.6565656565656566 -1.0 0.0
-0.6363636363636364 -1.0 0.0
-0.6161616161616161 -1.0 0.0
-0.5959595959595959 -1.0 0.0
-0.5757575757575757 -1.0 0.0
-0.5555555555555556 -1.0 0.0
-0.5353535353535352 -1.0 0.0
-0.5151515151515151 -1.0 0.0
-0.4949494949494949 -1.0 0.0
-0.4747474747474747 -1.0 0.0
-0.4545454545454545 -1.0 0.0
-0.43434343434343425 -1.0 0.0
-0.41414141414141414 -1.0 0.0
-0.3939393939393939 -1.0 0.0
-0.3737373737373737 -1.0 0.0
-0.3535353535353535 -1.0 0.0
-0.33333333333333326 -1.0 0.0
-0.31313131313131304 -1.0 0.0
-0.2929292929292928 -1.0 0.0
-0.2727272727272727 -1.0 0.0
-0.2525252525252525 -1.0 0.0
-0.23232323232323226 -1.0 0.0
-0.21212121212121204 -1.0 0.0
-0.19191919191919182 -1.0 0.0
-0.1717171717171716 -1.0 0.0
-0.1515151515151515 -1.0 0.0
-0.13131313131313127 -1.0 0.0
-0.11111111111111105 -1.0 0.0
-0.09090909090909083 -1.0 0.0
-0.07070707070707061 -1.0 0.0
-0.050505050505050386 -1.0 0.0
-0.030303030303030276 -1.0 0.0
-0.010101010101010055 -1.0 0.0
0.010101010101010166 -1.0 0.0
0.030303030303030498 -1.0 0.0
0.05050505050505061 -1.0 0.0
0.07070707070707072 -1.0 0.0
0.09090909090909105 -1.0 0.0
0.11111111111111116 -1.0 0.0
0.1313131313131315 -1.0 0.0
0.1515151515151516 -1.0 0.0
0.1717171717171717 -1.0 0.0
0.19191919191919204 -1.0 0.0
0.21212121212121215 -1.0 0.0
0.2323232323232325 -1.0 0.0
0.2525252525252526 -1.0 0.0
0.27272727272727293 -1.0 0.0
0.29292929292929304 -1.0 0.0
0.31313131313131315 -1.0 0.0
0.3333333333333335 -1.0 0.0
0.3535353535353536 -1.0 0.0
0.3737373737373739 -1.0 0.0
0.39393939393939403 -1.0 0.0
0.41414141414141437 -1.0 0.0
0.4343434343434345 -1.0 0.0
0.4545454545454546 -1.0 0.0
0.4747474747474749 -1.0 0.0
0.49494949494949503 -1.0 0.0
0.5151515151515154 -1.0 0.0
0.5353535353535355 -1.0 0.0
0.5555555555555556 -1.0 0.0
0.5757575757575759 -1.0 0.0
0.595959595959596 -1.0 0.0
0.6161616161616164 -1.0 0.0
0.6363636363636365 -1.0 0.0
0.6565656565656568 -1.0 0.0
0.6767676767676769 -1.0 0.0
0.696969696969697 -1.0 0.0
0.7171717171717173 -1.0 0.0
0.7373737373737375 -1.0 0.0
0.7575757575757578 -1.0 0.0
0.7777777777777779 -1.0 0.0
0.7979797979797982 -1.0 0.0
0.8181818181818183 -1.0 0.0
0.8383838383838385 -1.0 0.0
0.8585858585858588 -1.0 0.0
0.8787878787878789 -1.0 0.0
0.8989898989898992 -1.0 0.0
0.9191919191919193 -1.0 0.0
0.9393939393939394 -1.0 0.0
0.9595959595959598 -1.0 0.0
0.9797979797979799 -1.0 0.0
1.0 -1.0 0.0
-1.0 -0.9797979797979798 0.0
-0.9797979797979798 -0.9797979797979798 0.0
-0.9595959595959596 -0.9797979797979798 0.0
-0.9393939393939394 -0.9797979797979798 0.0
-0.9191919191919192 -0.9797979797979798 0.0
-0.898989898989899 -0.9797979797979798 0.0
-0.8787878787878788 -0.9797979797979798 0.0
-0.8585858585858586 -0.9797979797979798 0.0
-0.8383838383838383 -0.9797979797979798 0.0
-0.8181818181818181 -0.9797979797979798 0.0
-0.797979797979798 -0.9797979797979798 0.0
-0.7777777777777778 -0.9797979797979798 0.0
-0.7575757575757576 -0.9797979797979798 0.0
-0.7373737373737373 -0.9797979797979798 0.0
-0.7171717171717171 -0.9797979797979798 0.0
-0.696969696969697 -0.9797979797979798 0.0
-0.6767676767676767 -0.9797979797979798 0.0
-0.6565656565656566 -0.9797979797979798 0.0
-0.6363636363636364 -0.9797979797979798 0.0
-0.6161616161616161 -0.9797979797979798 0.0
-0.5959595959595959 -0.9797979797979798 0.0
-0.5757575757575757 -0.9797979797979798 0.0
-0.5555555555555556 -0.9797979797979798 0.0
-0.5353535353535352 -0.9797979797979798 0.0
-0.5151515151515151 -0.9797979797979798 0.0
-0.4949494949494949 -0.9797979797979798 0.0
-0.4747474747474747 -0.9797979797979798 0.0
-0.4545454545454545 -0.9797979797979798 0.0
-0.43434343434343425 -0.9797979797979798 0.0
-0.41414141414141414 -0.9797979797979798 0.0
-0.3939393939393939 -0.9797979797979798 0.0
-0.3737373737373737 -0.9797979797979798 0.0
-0.3535353535353535 -0.9797979797979798 0.0
-0.33333333333333326 -0.9797979797979798 0.0
-0.31313131313131304 -0.9797979797979798 0.0
-0.2929292929292928 -0.9797979797979798 0.0
-0.2727272727272727 -0.9797979797979798 0.0
-0.2525252525252525 -0.9797979797979798 0.0
-0.23232323232323226 -0.9797979797979798 0.0
-0.21212121212121204 -0.9797979797979798 0.0
-0.19191919191919182 -0.9797979797979798 0.0
-0.1717171717171716 -0.9797979797979798 0.0
-0.1515151515151515 -0.9797979797979798 0.0
-0.13131313131313127 -0.9797979797979798 0.0
-0.11111111111111105 -0.9797979797979798 0.0
-0.09090909090909083 -0.9797979797979798 0.0
-0.07070707070707061 -0.9797979797979798 0.0
-0.050505050505050386 -0.9797979797979798 0.0
-0.030303030303030276 -0.9797979797979798 0.0
-0.010101010101010055 -0.9797979797979798 0.0
0.010101010101010166 -0.9797979797979798 0.0
0.030303030303030498 -0.9797979797979798 0.0
0.05050505050505061 -0.9797979797979798 0.0
0.07070707070707072 -0.9797979797979798 0.0
0.09090909090909105 -0.9797979797979798 0.0
0.11111111111111116 -0.9797979797979798 0.0
0.1313131313131315 -0.9797979797979798 0.0
0.1515151515151516 -0.9797979797979798 0.0
0.1717171717171717 -0.9797979797979798 0.0
0.19191919191919204 -0.9797979797979798 0.0
0.21212121212121215 -0.9797979797979798 0.0
0.2323232323232325 -0.9797979797979798 0.0
0.2525252525252526 -0.9797979797979798 0.0
0.27272727272727293 -0.9797979797979798 0.0
0.29292929292929304 -0.9797979797979798 0.0
0.31313131313131315 -0.9797979797979798 0.0
0.3333333333333335 -0.9797979797979798 0.0
0.3535353535353536 -0.9797979797979798 0.0
0.3737373737373739 -0.9797979797979798 0.0
0.39393939393939403 -0.9797979797979798 0.0
0.41414141414141437 -0.9797979797979798 0.0
0.4343434343434345 -0.9797979797979798 0.0
0.4545454545454546 -0.9797979797979798 0.0
0.4747474747474749 -0.9797979797979798 0.0
0.49494949494949503 -0.9797979797979798 0.0
0.5151515151515154 -0.9797979797979798 0.0
0.5353535353535355 -0.9797979797979798 0.0
0.5555555555555556 -0.9797979797979798 0.0
0.5757575757575759 -0.9797979797979798 0.0
0.595959595959596 -0.9797979797979798 0.0
0.6161616161616164 -0.9797979797979798 0.0
0.6363636363636365 -0.9797979797979798 0.0
0.6565656565656568 -0.9797979797979798 0.0
0.6767676767676769 -0.9797979797979798 0.0
0.696969696969697 -0.9797979797979798 0.0
0.7171717171717173 -0.9797979797979798 0.0
0.7373737373737375 -0.9797979797979798 0.0
0.7575757575757578 -0.9797979797979798 0.0
0.7777777777777779 -0.9797979797979798 0.0
0.7979797979797982 -0.9797979797979798 0.0
0.8181818181818183 -0.9797979797979798 0.0
0.8383838383838385 -0.9797979797979798 0.0
0.8585858585858588 -0.9797979797979798 0.0
0.8787878787878789 -0.9797979797979798 0.0
0.8989898989898992 -0.9797979797979798 0.0
0.9191919191919193 -0.9797979797979798 0.0
0.9393939393939394 -0.9797979797979798 0.0
0.9595959595959598 -0.9797979797979798 0.0
0.9797979797979799 -0.9797979797979798 0.0
1.0 -0.9797979797979798 0.0
-1.0 -0.9595959595959596 0.0
-0.9797979797979798 -0.9595959595959596 0.0
-0.9595959595959596 -0.9595959595959596 0.0
-0.9393939393939394 -0.9595959595959596 0.0
-0.9191919191919192 -0.9595959595959596 0.0
-0.898989898989899 -0.9595959595959596 0.0
-0.8787878787878788 -0.9595959595959596 0.0
-0.8585858585858586 -0.9595959595959596 0.0
-0.8383838383838383 -0.9595959595959596 0.0
-0.8181818181818181 -0.9595959595959596 0.0
-0.797979797979798 -0.9595959595959596 0.0
-0.7777777777777778 -0.9595959595959596 0.0
-0.7575757575757576 -0.9595959595959596 0.0
-0.7373737373737373 -0.9595959595959596 0.0
-0.7171717171717171 -0.9595959595959596 0.0
-0.696969696969697 -0.9595959595959596 0.0
-0.6767676767676767 -0.9595959595959596 0.0
-0.6565656565656566 -0.9595959595959596 0.0
-0.6363636363636364 -0.9595959595959596 0.0
-0.6161616161616161 -0.9595959595959596 0.0
-0.5959595959595959 -0.9595959595959596 0.0
-0.5757575757575757 -0.9595959595959596 0.0
-0.5555555555555556 -0.9595959595959596 0.0
-0.5353535353535352 -0.9595959595959596 0.0
-0.5151515151515151 -0.9595959595959596 0.0
-0.4949494949494949 -0.9595959595959596 0.0
-0.4747474747474747 -0.9595959595959596 0.0
-0.4545454545454545 -0.9595959595959596 0.0
-0.43434343434343425 -0.9595959595959596 0.0
-0.41414141414141414 -0.9595959595959596 0.0
-0.3939393939393939 -0.9595959595959596 0.0
-0.3737373737373737 -0.9595959595959596 0.0
-0.3535353535353535 -0.9595959595959596 0.0
-0.33333333333333326 -0.9595959595959596 0.0
-0.31313131313131304 -0.9595959595959596 0.0
-0.2929292929292928 -0.9595959595959596 0.0
-0.2727272727272727 -0.9595959595959596 0.0
-0.2525252525252525 -0.9595959595959596 0.0
-0.23232323232323226 -0.9595959595959596 0.0
-0.21212121212121204 -0.9595959595959596 0.0
-0.19191919191919182 -0.9595959595959596 0.0
-0.1717171717171716 -0.9595959595959596 0.0
-0.1515151515151515 -0.9595959595959596 0.0
-0.13131313131313127 -0.9595959595959596 0.0
-0.11111111111111105 -0.9595959595959596 0.0
-0.09090909090909083 -0.9595959595959596 0.0
-0.07070707070707061 -0.9595959595959596 0.0
-0.050505050505050386 -0.9595959595959596 0.0
-0.030303030303030276 -0.9595959595959596 0.0
-0.010101010101010055 -0.9595959595959596 0.0
0.010101010101010166 -0.9595959595959596 0.0
0.030303030303030498 -0.9595959595959596 0.0
0.05050505050505061 -0.9595959595959596 0.0
0.07070707070707072 -0.9595959595959596 0.0
0.09090909090909105 -0.9595959595959596 0.0
0.11111111111111116 -0.9595959595959596 0.0
0.1313131313131315 -0.9595959595959596 0.0
0.1515151515151516 -0.9595959595959596 0.0
0.1717171717171717 -0.9595959595959596 0.0
0.19191919191919204 -0.9595959595959596 0.0
0.21212121212121215 -0.9595959595959596 0.0
[...]
POINT_DATA 10000
SCALARS u float 1
LOOKUP_TABLE default
6.642937660217285e-05
6.461143493652344e-05
6.306171417236328e-05
6.176531314849854e-05
6.070733070373535e-05
5.988776683807373e-05
5.9232115745544434e-05
5.8650970458984375e-05
5.81592321395874e-05
5.7697296142578125e-05
5.729496479034424e-05
5.683302879333496e-05
5.62518835067749e-05
5.564093589782715e-05
5.494058132171631e-05
5.4135918617248535e-05
5.328655242919922e-05
5.2303075790405273e-05
5.1274895668029785e-05
5.023181438446045e-05
4.921853542327881e-05
4.820525646209717e-05
4.7326087951660156e-05
4.6566128730773926e-05
4.5999884605407715e-05
4.5686960220336914e-05
4.5627355575561523e-05
4.5880675315856934e-05
4.649162292480469e-05
4.7534704208374023e-05
4.8995018005371094e-05
5.0902366638183594e-05
5.3241848945617676e-05
5.608797073364258e-05
5.936622619628906e-05
6.309151649475098e-05
6.721913814544678e-05
7.176399230957031e-05
7.665157318115234e-05
8.177757263183594e-05
8.709728717803955e-05
9.261071681976318e-05
9.799003601074219e-05
0.00010336935520172119
0.00010839104652404785
0.00011311471462249756
0.0001173168420791626
0.00012086331844329834
0.000123634934425354
0.0001255124807357788
0.00012639164924621582
0.0001262277364730835
0.00012484192848205566
0.00012226402759552002
0.00011847913265228271
0.00011345744132995605
0.00010734796524047852
0.00010026991367340088
9.21487808227539e-05
8.325278759002686e-05
7.374584674835205e-05
6.376206874847412e-05
5.334615707397461e-05
4.267692565917969e-05
3.1813979148864746e-05
2.0876526832580566e-05
9.953975677490234e-06
-8.344650268554688e-07
-1.1473894119262695e-05
-2.1845102310180664e-05
-3.199279308319092e-05
-4.1872262954711914e-05
-5.143880844116211e-05
-6.0752034187316895e-05
-6.96331262588501e-05
-7.812678813934326e-05
-8.602440357208252e-05
-9.31769609451294e-05
-9.942054748535156e-05
-0.00010466575622558594
-0.00010891258716583252
-0.00011217594146728516
-0.00011444091796875
-0.00011591613292694092
-0.00011692941188812256
-0.00011771917343139648
-0.0001185685396194458
-0.00011979043483734131
-0.00012156367301940918
-0.00012415647506713867
-0.00012764334678649902
-0.00013203918933868408
-0.0001373291015625
-0.00014354288578033447
-0.00015051662921905518
-0.0001579970121383667
-0.00016589462757110596
-0.00017403066158294678
-0.00018221139907836914
-0.00019015371799468994
6.984174251556396e-05
6.836652755737305e-05
6.712973117828369e-05
6.605684757232666e-05
6.522238254547119e-05
6.455183029174805e-05
6.395578384399414e-05
6.341934204101562e-05
6.288290023803711e-05
6.243586540222168e-05
6.189942359924316e-05
6.125867366790771e-05
6.052851676940918e-05
5.9723854064941406e-05
5.8785080909729004e-05
5.7756900787353516e-05
5.65946102142334e-05
5.532801151275635e-05
5.40316104888916e-05
5.27501106262207e-05
5.143880844116211e-05
5.017220973968506e-05
4.903972148895264e-05
4.801154136657715e-05
4.723668098449707e-05
4.67151403427124e-05
4.64320182800293e-05
4.647672176361084e-05
4.6893954277038574e-05
4.766881465911865e-05
4.887580871582031e-05
5.05596399307251e-05
5.266070365905762e-05
5.526840686798096e-05
5.8263540267944336e-05
6.16908073425293e-05
6.559491157531738e-05
6.99162483215332e-05
7.455050945281982e-05
7.95125961303711e-05
8.477270603179932e-05
9.015202522277832e-05
9.556114673614502e-05
0.00010082125663757324
0.00010597705841064453
0.00011073052883148193
0.0001150369644165039
0.00011873245239257812
0.00012171268463134766
0.00012388825416564941
0.00012508034706115723
0.00012518465518951416
0.00012420117855072021
0.00012198090553283691
0.00011861324310302734
0.00011411309242248535
0.0001084357500076294
0.00010170042514801025
9.404122829437256e-05
8.557736873626709e-05
7.645785808563232e-05
6.677210330963135e-05
5.657970905303955e-05
4.6059489250183105e-05
3.5196542739868164e-05
2.4124979972839355e-05
1.2934207916259766e-05
1.6540288925170898e-06
-9.581446647644043e-06
-2.0742416381835938e-05
-3.160536289215088e-05
-4.217028617858887e-05
-5.231797695159912e-05
-6.20037317276001e-05
-7.113814353942871e-05
-7.957220077514648e-05
-8.736550807952881e-05
-9.429454803466797e-05
-0.00010028481483459473
-0.00010527670383453369
-0.00010930001735687256
-0.00011228024959564209
-0.00011445581912994385
-0.00011596083641052246
-0.0001169443130493164
-0.00011776387691497803
-0.0001185983419418335
-0.00011977553367614746
-0.00012150406837463379
-0.00012390315532684326
-0.00012715160846710205
-0.00013127923011779785
-0.00013628602027893066
-0.00014206767082214355
-0.00014863908290863037
-0.00015579164028167725
-0.00016336143016815186
-0.00017113983631134033
-0.0001789480447769165
-0.00018669664859771729
7.301568984985352e-05
7.176399230957031e-05
7.072091102600098e-05
6.990134716033936e-05
6.912648677825928e-05
6.853044033050537e-05
6.797909736633301e-05
6.744265556335449e-05
6.690621376037598e-05
6.626546382904053e-05
6.55055046081543e-05
6.468594074249268e-05
6.379187107086182e-05
6.268918514251709e-05
6.146728992462158e-05
6.008148193359375e-05
5.860626697540283e-05
5.704164505004883e-05
5.5462121963500977e-05
5.380809307098389e-05
5.2168965339660645e-05
5.066394805908203e-05
4.9233436584472656e-05
4.798173904418945e-05
4.690885543823242e-05
4.6133995056152344e-05
4.558265209197998e-05
4.5418739318847656e-05
4.5612454414367676e-05
4.616379737854004e-05
4.7147274017333984e-05
4.856288433074951e-05
5.0395727157592773e-05
5.2735209465026855e-05
5.549192428588867e-05
5.874037742614746e-05
6.236135959625244e-05
6.648898124694824e-05
7.104873657226562e-05
7.587671279907227e-05
8.100271224975586e-05
8.633732795715332e-05
9.177625179290771e-05
9.717047214508057e-05
0.00010232627391815186
0.00010727345943450928
0.00011175870895385742
0.0001157224178314209
0.00011894106864929199
0.00012145936489105225
0.00012296438217163086
0.00012353062629699707
0.00012299418449401855
0.00012131035327911377
0.00011846423149108887
0.00011439621448516846
0.00010921061038970947
0.00010304152965545654
9.587407112121582e-05
8.794665336608887e-05
7.927417755126953e-05
6.99758529663086e-05
6.020069122314453e-05
4.997849464416504e-05
3.9383769035339355e-05
2.8461217880249023e-05
1.71661376953125e-05
5.647540092468262e-06
-5.9604644775390625e-06
-1.7568469047546387e-05
-2.9042363166809082e-05
-4.026293754577637e-05
-5.105137825012207e-05
-6.122887134552002e-05
-7.073581218719482e-05
-7.942318916320801e-05
-8.729100227355957e-05
-9.420514106750488e-05
-0.00010004639625549316
-0.00010491907596588135
-0.00010883808135986328
-0.00011175870895385742
-0.00011390447616577148
-0.00011546909809112549
-0.00011651217937469482
-0.00011739134788513184
-0.00011833012104034424
-0.00011958181858062744
-0.00012125074863433838
-0.00012356042861938477
-0.00012668967247009277
-0.000130578875541687
-0.0001353621482849121
-0.00014092028141021729
-0.0001471191644668579
-0.0001539289951324463
-0.0001611262559890747
-0.00016857683658599854
-0.00017617642879486084
-0.0001837015151977539
7.577240467071533e-05
7.474422454833984e-05
7.385015487670898e-05
7.311999797821045e-05
7.246434688568115e-05
7.18235969543457e-05
7.11977481842041e-05
7.058680057525635e-05
6.985664367675781e-05
6.902217864990234e-05
6.805360317230225e-05
6.695091724395752e-05
6.571412086486816e-05
6.429851055145264e-05
6.274878978729248e-05
6.099045276641846e-05
5.9157609939575195e-05
5.7250261306762695e-05
5.525350570678711e-05
5.336105823516846e-05
5.1409006118774414e-05
4.9591064453125e-05
4.792213439941406e-05
4.6387314796447754e-05
4.506111145019531e-05
4.406273365020752e-05
4.330277442932129e-05
4.296004772186279e-05
4.287064075469971e-05
4.316866397857666e-05
4.3958425521850586e-05
4.5105814933776855e-05
4.67449426651001e-05
4.8801302909851074e-05
5.1349401473999023e-05
5.431473255157471e-05
5.7816505432128906e-05
6.175041198730469e-05
6.608664989471436e-05
7.086992263793945e-05
7.593631744384766e-05
8.124113082885742e-05
8.659064769744873e-05
9.205937385559082e-05
9.737908840179443e-05
0.00010243058204650879
0.00010716915130615234
0.00011137127876281738
0.00011499226093292236
0.00011788308620452881
0.0001198500394821167
0.00012089312076568604
0.00012090802192687988
0.00011986494064331055
0.00011757016181945801
0.00011411309242248535
0.00010959804058074951
0.00010401010513305664
9.746849536895752e-05
9.009242057800293e-05
8.195638656616211e-05
7.326900959014893e-05
6.404519081115723e-05
5.429983139038086e-05
4.410743713378906e-05
3.3468008041381836e-05
2.244114875793457e-05
1.1071562767028809e-05
-7.003545761108398e-07
-1.259148120880127e-05
-2.4527311325073242e-05
-3.625452518463135e-05
-4.754960536956787e-05
-5.8278441429138184e-05
-6.824731826782227e-05
-7.730722427368164e-05
-8.536875247955322e-05
-9.244680404663086e-05
-9.842216968536377e-05
-0.00010332465171813965
-0.00010725855827331543
-0.00011032819747924805
-0.00011259317398071289
-0.00011420249938964844
-0.00011551380157470703
-0.00011658668518066406
-0.0001176297664642334
-0.00011894106864929199
-0.00012071430683135986
-0.00012311339378356934
-0.00012615323066711426
-0.00012993812561035156
-0.00013446807861328125
-0.0001398026943206787
-0.00014579296112060547
-0.0001523345708847046
-0.00015926361083984375
-0.0001665353775024414
-0.0001738518476486206
-0.00018110871315002441
7.824599742889404e-05
7.730722427368164e-05
7.650256156921387e-05
7.572770118713379e-05
7.50124454498291e-05
7.43567943572998e-05
7.356703281402588e-05
7.274746894836426e-05
7.174909114837646e-05
7.069110870361328e-05
6.936490535736084e-05
6.797909736633301e-05
6.635487079620361e-05
6.45369291305542e-05
6.255507469177246e-05
6.048381328582764e-05
5.823373794555664e-05
5.59687614440918e-05
5.365908145904541e-05
5.1394104957580566e-05
4.9173831939697266e-05
4.70578670501709e-05
4.51505184173584e-05
4.3392181396484375e-05
4.191696643829346e-05
4.062056541442871e-05
3.972649574279785e-05
3.917515277862549e-05
3.890693187713623e-05
3.91155481338501e-05
3.960728645324707e-05
4.0590763092041016e-05
4.1991472244262695e-05
4.3779611587524414e-05
4.60892915725708e-05
4.887580871582031e-05
5.213916301727295e-05
5.589425563812256e-05
6.002187728881836e-05
6.458163261413574e-05
6.958842277526855e-05
7.477402687072754e-05
8.015334606170654e-05
8.55475664138794e-05
9.094178676605225e-05
9.614229202270508e-05
0.0001010596752166748
0.00010554492473602295
0.00010947883129119873
0.00011283159255981445
0.00011534988880157471
0.0001170039176940918
0.00011770427227020264
0.0001172870397567749
0.00011576712131500244
0.00011305510997772217
0.0001093149185180664
0.00010441243648529053
9.85860824584961e-05
9.191036224365234e-05
8.448958396911621e-05
7.641315460205078e-05
6.775557994842529e-05
5.8591365814208984e-05
4.900991916656494e-05
3.8936734199523926e-05
2.835690975189209e-05
1.7330050468444824e-05
5.856156349182129e-06
-6.034970283508301e-06
-1.8149614334106445e-05
-3.013014793395996e-05
-4.1857361793518066e-05
-5.3048133850097656e-05
-6.347894668579102e-05
-7.297098636627197e-05
-8.143484592437744e-05
-8.884072303771973e-05
-9.506940841674805e-05
-0.00010019540786743164
-0.00010432302951812744
-0.00010758638381958008
-0.00011010468006134033
-0.00011207163333892822
-0.00011365115642547607
-0.00011499226093292236
-0.0001163780689239502
-0.00011795759201049805
-0.00011989474296569824
-0.00012233853340148926
-0.00012540817260742188
-0.00012916326522827148
-0.00013369321823120117
-0.00013881921768188477
-0.0001446157693862915
-0.00015094876289367676
-0.0001576542854309082
-0.00016477704048156738
-0.00017188489437103271
-0.00017896294593811035
8.018314838409424e-05
7.936358451843262e-05
7.857382297515869e-05
7.770955562591553e-05
7.68899917602539e-05
7.596611976623535e-05
7.50124454498291e-05
7.385015487670898e-05
7.259845733642578e-05
7.115304470062256e-05
6.949901580810547e-05
6.765127182006836e-05
6.563961505889893e-05
6.332993507385254e-05
6.1005353927612305e-05
5.84721565246582e-05
5.589425563812256e-05
5.327165126800537e-05
5.0634145736694336e-05
4.807114601135254e-05
4.5627355575561523e-05
4.331767559051514e-05
4.121661186218262e-05
3.9324164390563965e-05
3.764033317565918e-05
3.6269426345825195e-05
3.524124622344971e-05
3.457069396972656e-05
3.4168362617492676e-05
3.4183263778686523e-05
3.454089164733887e-05
3.534555435180664e-05
3.647804260253906e-05
3.814697265625e-05
4.0203332901000977e-05
4.2691826820373535e-05
4.573166370391846e-05
4.9173831939697266e-05
5.310773849487305e-05
5.742907524108887e-05
6.216764450073242e-05
6.718933582305908e-05
7.243454456329346e-05
7.775425910949707e-05
8.307397365570068e-05
8.837878704071045e-05
9.344518184661865e-05
9.816884994506836e-05
0.00010251998901367188
0.00010626018047332764
0.00010935962200164795
0.00011166930198669434
0.00011305510997772217
0.00011345744132995605
0.00011283159255981445
0.00011099874973297119
0.00010815262794494629
0.00010415911674499512
9.918212890625e-05
9.337067604064941e-05
8.665025234222412e-05
7.925927639007568e-05
7.133185863494873e-05
6.276369094848633e-05
5.389750003814697e-05
4.442036151885986e-05
3.454089164733887e-05
2.4110078811645508e-05
1.309812068939209e-05
1.6242265701293945e-06
-1.0251998901367188e-05
-2.2232532501220703e-05
-3.415346145629883e-05
-4.565715789794922e-05
-5.646049976348877e-05
-6.636977195739746e-05
-7.522106170654297e-05
-8.301436901092529e-05
-8.963048458099365e-05
-9.512901306152344e-05
-9.970366954803467e-05
-0.00010335445404052734
-0.00010633468627929688
-0.00010873377323150635
-0.00011076033115386963
-0.00011259317398071289
-0.00011436641216278076
-0.00011633336544036865
-0.00011850893497467041
-0.00012114644050598145
-0.00012439489364624023
-0.00012828409671783447
-0.00013273954391479492
-0.00013782083988189697
-0.00014355778694152832
-0.00014972686767578125
-0.00015638768672943115
-0.00016325712203979492
-0.00017024576663970947
-0.00017721951007843018
8.186697959899902e-05
8.091330528259277e-05
8.000433444976807e-05
7.893145084381104e-05
7.794797420501709e-05
7.680058479309082e-05
7.545948028564453e-05
7.399916648864746e-05
7.231533527374268e-05
7.036328315734863e-05
6.830692291259766e-05
6.599724292755127e-05
6.349384784698486e-05
6.0871243476867676e-05
5.809962749481201e-05
5.517899990081787e-05
5.227327346801758e-05
4.932284355163574e-05
4.64320182800293e-05
4.369020462036133e-05
4.105269908905029e-05
3.859400749206543e-05
3.6329030990600586e-05
3.4332275390625e-05
3.2708048820495605e-05
3.127753734588623e-05
3.0174851417541504e-05
2.9414892196655273e-05
2.9042363166809082e-05
2.8952956199645996e-05
2.92360782623291e-05
2.981722354888916e-05
3.08305025100708e-05
3.223121166229248e-05
3.40193510055542e-05
3.6269426345825195e-05
3.8951635360717773e-05
4.209578037261963e-05
4.5672059059143066e-05
4.963576793670654e-05
5.40316104888916e-05
5.88148832321167e-05
6.377696990966797e-05
6.885826587677002e-05
7.411837577819824e-05
7.934868335723877e-05
8.445978164672852e-05
8.940696716308594e-05
9.396672248840332e-05
9.813904762268066e-05
0.00010183453559875488
0.00010481476783752441
0.00010702013969421387
0.00010828673839569092
0.00010865926742553711
0.00010785460472106934
0.00010606646537780762
0.00010319054126739502
9.930133819580078e-05
9.44286584854126e-05
8.864700794219971e-05
8.206069469451904e-05
7.480382919311523e-05
6.695091724395752e-05
5.868077278137207e-05
4.99039888381958e-05
4.079937934875488e-05
3.1128525733947754e-05
2.0906329154968262e-05
1.0058283805847168e-05
-1.2516975402832031e-06
-1.2993812561035156e-05
-2.473592758178711e-05
-3.629922866821289e-05
-4.731118679046631e-05
-5.75333833694458e-05
-6.680190563201904e-05
-7.496774196624756e-05
-8.207559585571289e-05
-8.812546730041504e-05
-9.319186210632324e-05
-9.742379188537598e-05
-0.00010095536708831787
-0.00010401010513305664
-0.00010660290718078613
-0.000109061598777771
-0.00011143088340759277
-0.00011388957500457764
-0.00011657178401947021
-0.00011962652206420898
-0.00012302398681640625
-0.00012709200382232666
-0.00013162195682525635
-0.00013680756092071533
-0.00014249980449676514
-0.00014860928058624268
-0.00015513598918914795
-0.00016197562217712402
-0.00016888976097106934
-0.0001757889986038208
8.305907249450684e-05
8.189678192138672e-05
8.080899715423584e-05
7.95125961303711e-05
7.811188697814941e-05
7.656216621398926e-05
7.489323616027832e-05
7.297098636627197e-05
7.079541683197021e-05
6.847083568572998e-05
6.587803363800049e-05
6.313621997833252e-05
6.0185790061950684e-05
5.7056546211242676e-05
5.3882598876953125e-05
5.072355270385742e-05
4.744529724121094e-05
4.431605339050293e-05
4.1231513023376465e-05
3.834068775177002e-05
3.565847873687744e-05
3.312528133392334e-05
3.091990947723389e-05
2.898275852203369e-05
2.7358531951904297e-05
2.600252628326416e-05
2.4974346160888672e-05
2.4259090423583984e-05
2.384185791015625e-05
2.3752450942993164e-05
2.3946166038513184e-05
2.44826078414917e-05
2.5331974029541016e-05
2.6494264602661133e-05
2.8073787689208984e-05
3.0040740966796875e-05
3.236532211303711e-05
3.5002827644348145e-05
3.8236379623413086e-05
4.1812658309936523e-05
4.573166370391846e-05
5.003809928894043e-05
5.459785461425781e-05
5.94407320022583e-05
6.444752216339111e-05
6.943941116333008e-05
7.456541061401367e-05
7.955729961395264e-05
8.441507816314697e-05
8.89897346496582e-05
9.308755397796631e-05
9.678304195404053e-05
9.98079776763916e-05
0.00010198354721069336
0.00010332465171813965
0.00010377168655395508
0.00010323524475097656
0.00010162591934204102
9.912252426147461e-05
9.547173976898193e-05
9.080767631530762e-05
8.51750373840332e-05
7.867813110351562e-05
7.145106792449951e-05
6.368756294250488e-05
5.561113357543945e-05
4.713237285614014e-05
3.8251280784606934e-05
2.8878450393676758e-05
1.8835067749023438e-05
8.27014446258545e-06
-2.771615982055664e-06
-1.4126300811767578e-05
-2.5451183319091797e-05
-3.641843795776367e-05
-4.677474498748779e-05
-5.632638931274414e-05
-6.486475467681885e-05
-7.241964340209961e-05
-7.903575897216797e-05
-8.472800254821777e-05
-8.960068225860596e-05
-9.390711784362793e-05
-9.772181510925293e-05
-0.00010110437870025635
-0.00010433793067932129
-0.0001074075698852539
-0.00011055171489715576
-0.00011382997035980225
-0.00011737644672393799
-0.00012125074863433838
-0.0001255422830581665
-0.00013031065464019775
-0.00013560056686401367
-0.00014138221740722656
-0.00014753639698028564
-0.00015406310558319092
-0.0001608133316040039
-0.00016771256923675537
-0.00017461180686950684
8.36104154586792e-05
8.223950862884521e-05
8.07642936706543e-05
7.91400671005249e-05
7.733702659606934e-05
7.534027099609375e-05
7.314980030059814e-05
7.072091102600098e-05
6.80685043334961e-05
6.520748138427734e-05
6.212294101715088e-05
5.891919136047363e-05
5.5536627769470215e-05
5.2094459533691406e-05
4.8607587814331055e-05
4.51207160949707e-05
4.170835018157959e-05
3.840029239654541e-05
3.528594970703125e-05
3.2335519790649414e-05
2.9668211936950684e-05
2.726912498474121e-05
2.516806125640869e-05
2.3350119590759277e-05
2.187490463256836e-05
2.06679105758667e-05
1.9803643226623535e-05
1.920759677886963e-05
1.893937587738037e-05
1.887977123260498e-05
1.9073486328125e-05
1.9565224647521973e-05
2.034008502960205e-05
2.1398067474365234e-05
2.2649765014648438e-05
2.428889274597168e-05
2.6285648345947266e-05
2.8654932975769043e-05
3.126263618469238e-05
3.437697887420654e-05
3.7804245948791504e-05
4.16487455368042e-05
4.570186138153076e-05
5.015730857849121e-05
5.480647087097168e-05
5.955994129180908e-05
6.45071268081665e-05
6.946921348571777e-05
7.447600364685059e-05
7.930397987365723e-05
8.392333984375e-05
8.812546730041504e-05
9.18358564376831e-05
9.490549564361572e-05
9.731948375701904e-05
9.900331497192383e-05
9.991228580474854e-05
9.989738464355469e-05
9.900331497192383e-05
9.69916582107544e-05
9.37730073928833e-05
8.931756019592285e-05
8.378922939300537e-05
7.720291614532471e-05
6.985664367675781e-05
6.216764450073242e-05
5.409121513366699e-05
4.5806169509887695e-05
3.713369369506836e-05
2.79843807220459e-05
1.831352710723877e-05
8.07642936706543e-06
-2.592802047729492e-06
-1.3455748558044434e-05
-2.4124979972839355e-05
-3.437697887420654e-05
-4.406273365020752e-05
-5.288422107696533e-05
-6.084144115447998e-05
-6.794929504394531e-05
-7.425248622894287e-05
-7.991492748260498e-05