# vtk DataFile Version 3.0
2D PINN Solution
ASCII
DATASET STRUCTURED_GRID
DIMENSIONS 100 100 1
POINTS 10000 float
-1.0 -1.0 0.0
-0.9797979797979798 -1.0 0.0
-0.9595959595959596 -1.0 0.0
-0.9393939393939394 -1.0 0.0
-0.9191919191919192 -1.0 0.0
-0.898989898989899 -1.0 0.0
-0.8787878787878788 -1.0 0.0
-0.8585858585858586 -1.0 0.0
-0.8383838383838383 -1.0 0.0
-0.8181818181818181 -1.0 0.0
-0.797979797979798 -1.0 0.0
-0.7777777777777778 -1.0 0.0
-0.7575757575757576 -1.0 0.0
-0.7373737373737373 -1.0 0.0
-0.7171717171717171 -1.0 0.0
-0.696969696969697 -1.0 0.0
-0.6767676767676767 -1.0 0.0
-0.6565656565656566 -1.0 0.0
-0.6363636363636364 -1.0 0.0
-0.6161616161616161 -1.0 0.0
-0.5959595959595959 -1.0 0.0
-0.5757575757575757 -1.0 0.0
-0.5555555555555556 -1.0 0.0
-0.5353535353535352 -1.0 0.0
-0.5151515151515151 -1.0 0.0
-0.4949494949494949 -1.0 0.0
-0.4747474747474747 -1.0 0.0
-0.4545454545454545 -1.0 0.0
-0.43434343434343425 -1.0 0.0
-0.41414141414141414 -1.0 0.0
-0.3939393939393939 -1.0 0.0
-0.3737373737373737 -1.0 0.0
-0.3535353535353535 -1.0 0.0
-0.33333333333333326 -1.0 0.0
-0.31313131313131304 -1.0 0.0
-0.2929292929292928 -1.0 0.0
-0.2727272727272727 -1.0 0.0
-0.2525252525252525 -1.0 0.0
-0.23232323232323226 -1.0 0.0
-0.21212121212121204 -1.0 0.0
-0.19191919191919182 -1.0 0.0
-0.1717171717171716 -1.0 0.0
-0.1515151515151515 -1.0 0.0
-0.13131313131313127 -1.0 0.0
-0.11111111111111105 -1.0 0.0
-0.09090909090909083 -1.0 0.0
-0.07070707070707061 -1.0 0.0
-0.050505050505050386 -1.0 0.0
-0.030303030303030276 -1.0 0.0
-0.010101010101010055 -1.0 0.0
0.010101010101010166 -1.0 0.0
0.030303030303030498 -1.0 0.0
0.05050505050505061 -1.0 0.0
0.07070707070707072 -1.0 0.0
0.09090909090909105 -1.0 0.0
0.11111111111111116 -1.0 0.0
0.1313131313131315 -1.0 0.0
0.1515151515151516 -1.0 0.0
0.1717171717171717 -1.0 0.0
0.19191919191919204 -1.0 0.0
0.21212121212121215 -1.0 0.0
0.2323232323232325 -1.0 0.0
0.2525252525252526 -1.0 0.0
0.27272727272727293 -1.0 0.0
0.29292929292929304 -1.0 0.0
0.31313131313131315 -1.0 0.0
0.3333333333333335 -1.0 0.0
0.3535353535353536 -1.0 0.0
0.3737373737373739 -1.0 0.0
0.39393939393939403 -1.0 0.0
0.41414141414141437 -1.0 0.0
0.4343434343434345 -1.0 0.0
0.4545454545454546 -1.0 0.0
0.4747474747474749 -1.0 0.0
0.49494949494949503 -1.0 0.0
0.5151515151515154 -1.0 0.0
0.5353535353535355 -1.0 0.0
0.5555555555555556 -1.0 0.0
0.5757575757575759 -1.0 0.0
0.595959595959596 -1.0 0.0
0.6161616161616164 -1.0 0.0
0.6363636363636365 -1.0 0.0
0.6565656565656568 -1.0 0.0
0.6767676767676769 -1.0 0.0
0.696969696969697 -1.0 0.0
0.7171717171717173 -1.0 0.0
0.7373737373737375 -1.0 0.0
0.7575757575757578 -1.0 0.0
0.7777777777777779 -1.0 0.0
0.7979797979797982 -1.0 0.0
0.8181818181818183 -1.0 0.0
0.8383838383838385 -1.0 0.0
0.8585858585858588 -1.0 0.0
0.8787878787878789 -1.0 0.0
0.8989898989898992 -1.0 0.0
0.9191919191919193 -1.0 0.0
0.9393939393939394 -1.0 0.0
0.9595959595959598 -1.0 0.0
0.9797979797979799 -1.0 0.0
1.0 -1.0 0.0
-1.0 -0.9797979797979798 0.0
-0.9797979797979798 -0.9797979797979798 0.0
-0.9595959595959596 -0.9797979797979798 0.0
-0.9393939393939394 -0.9797979797979798 0.0
-0.9191919191919192 -0.9797979797979798 0.0
-0.898989898989899 -0.9797979797979798 0.0
-0.8787878787878788 -0.9797979797979798 0.0
-0.8585858585858586 -0.9797979797979798 0.0
-0.8383838383838383 -0.9797979797979798 0.0
-0.8181818181818181 -0.9797979797979798 0.0
-0.797979797979798 -0.9797979797979798 0.0
-0.7777777777777778 -0.9797979797979798 0.0
-0.7575757575757576 -0.9797979797979798 0.0
-0.7373737373737373 -0.9797979797979798 0.0
-0.7171717171717171 -0.9797979797979798 0.0
-0.696969696969697 -0.9797979797979798 0.0
-0.6767676767676767 -0.9797979797979798 0.0
-0.6565656565656566 -0.9797979797979798 0.0
-0.6363636363636364 -0.9797979797979798 0.0
-0.6161616161616161 -0.9797979797979798 0.0
-0.5959595959595959 -0.9797979797979798 0.0
-0.5757575757575757 -0.9797979797979798 0.0
-0.5555555555555556 -0.9797979797979798 0.0
-0.5353535353535352 -0.9797979797979798 0.0
-0.5151515151515151 -0.9797979797979798 0.0
-0.4949494949494949 -0.9797979797979798 0.0
-0.4747474747474747 -0.9797979797979798 0.0
-0.4545454545454545 -0.9797979797979798 0.0
-0.43434343434343425 -0.9797979797979798 0.0
-0.41414141414141414 -0.9797979797979798 0.0
-0.3939393939393939 -0.9797979797979798 0.0
-0.3737373737373737 -0.9797979797979798 0.0
-0.3535353535353535 -0.9797979797979798 0.0
-0.33333333333333326 -0.9797979797979798 0.0
-0.31313131313131304 -0.9797979797979798 0.0
-0.2929292929292928 -0.9797979797979798 0.0
-0.2727272727272727 -0.9797979797979798 0.0
-0.2525252525252525 -0.9797979797979798 0.0
-0.23232323232323226 -0.9797979797979798 0.0
-0.21212121212121204 -0.9797979797979798 0.0
-0.19191919191919182 -0.9797979797979798 0.0
-0.1717171717171716 -0.9797979797979798 0.0
-0.1515151515151515 -0.9797979797979798 0.0
-0.13131313131313127 -0.9797979797979798 0.0
-0.11111111111111105 -0.9797979797979798 0.0
-0.09090909090909083 -0.9797979797979798 0.0
-0.07070707070707061 -0.9797979797979798 0.0
-0.050505050505050386 -0.9797979797979798 0.0
-0.030303030303030276 -0.9797979797979798 0.0
-0.010101010101010055 -0.9797979797979798 0.0
0.010101010101010166 -0.9797979797979798 0.0
0.030303030303030498 -0.9797979797979798 0.0
0.05050505050505061 -0.9797979797979798 0.0
0.07070707070707072 -0.9797979797979798 0.0
0.09090909090909105 -0.9797979797979798 0.0
0.11111111111111116 -0.9797979797979798 0.0
0.1313131313131315 -0.9797979797979798 0.0
0.1515151515151516 -0.9797979797979798 0.0
0.1717171717171717 -0.9797979797979798 0.0
0.19191919191919204 -0.9797979797979798 0.0
0.21212121212121215 -0.9797979797979798 0.0
0.2323232323232325 -0.9797979797979798 0.0
0.2525252525252526 -0.9797979797979798 0.0
0.27272727272727293 -0.9797979797979798 0.0
0.29292929292929304 -0.9797979797979798 0.0
0.31313131313131315 -0.9797979797979798 0.0
0.3333333333333335 -0.9797979797979798 0.0
0.3535353535353536 -0.9797979797979798 0.0
0.3737373737373739 -0.9797979797979798 0.0
0.39393939393939403 -0.9797979797979798 0.0
0.41414141414141437 -0.9797979797979798 0.0
0.4343434343434345 -0.9797979797979798 0.0
0.4545454545454546 -0.9797979797979798 0.0
0.4747474747474749 -0.9797979797979798 0.0
0.49494949494949503 -0.9797979797979798 0.0
0.5151515151515154 -0.9797979797979798 0.0
0.5353535353535355 -0.9797979797979798 0.0
0.5555555555555556 -0.9797979797979798 0.0
0.5757575757575759 -0.9797979797979798 0.0
0.595959595959596 -0.9797979797979798 0.0
0.6161616161616164 -0.9797979797979798 0.0
0.6363636363636365 -0.9797979797979798 0.0
0.6565656565656568 -0.9797979797979798 0.0
0.6767676767676769 -0.9797979797979798 0.0
0.696969696969697 -0.9797979797979798 0.0
0.7171717171717173 -0.9797979797979798 0.0
0.7373737373737375 -0.9797979797979798 0.0
0.7575757575757578 -0.9797979797979798 0.0
0.7777777777777779 -0.9797979797979798 0.0
0.7979797979797982 -0.9797979797979798 0.0
0.8181818181818183 -0.9797979797979798 0.0
0.8383838383838385 -0.9797979797979798 0.0
0.8585858585858588 -0.9797979797979798 0.0
0.8787878787878789 -0.9797979797979798 0.0
0.8989898989898992 -0.9797979797979798 0.0
0.9191919191919193 -0.9797979797979798 0.0
0.9393939393939394 -0.9797979797979798 0.0
0.9595959595959598 -0.9797979797979798 0.0
0.9797979797979799 -0.9797979797979798 0.0
1.0 -0.9797979797979798 0.0
-1.0 -0.9595959595959596 0.0
-0.9797979797979798 -0.9595959595959596 0.0
-0.9595959595959596 -0.9595959595959596 0.0
-0.9393939393939394 -0.9595959595959596 0.0
-0.9191919191919192 -0.9595959595959596 0.0
-0.898989898989899 -0.9595959595959596 0.0
-0.8787878787878788 -0.9595959595959596 0.0
-0.8585858585858586 -0.9595959595959596 0.0
-0.8383838383838383 -0.9595959595959596 0.0
-0.8181818181818181 -0.9595959595959596 0.0
-0.797979797979798 -0.9595959595959596 0.0
-0.7777777777777778 -0.9595959595959596 0.0
-0.7575757575757576 -0.9595959595959596 0.0
-0.7373737373737373 -0.9595959595959596 0.0
-0.7171717171717171 -0.9595959595959596 0.0
-0.696969696969697 -0.9595959595959596 0.0
-0.6767676767676767 -0.9595959595959596 0.0
-0.6565656565656566 -0.9595959595959596 0.0
-0.6363636363636364 -0.9595959595959596 0.0
-0.6161616161616161 -0.9595959595959596 0.0
-0.5959595959595959 -0.9595959595959596 0.0
-0.5757575757575757 -0.9595959595959596 0.0
-0.5555555555555556 -0.9595959595959596 0.0
-0.5353535353535352 -0.9595959595959596 0.0
-0.5151515151515151 -0.9595959595959596 0.0
-0.4949494949494949 -0.9595959595959596 0.0
-0.4747474747474747 -0.9595959595959596 0.0
-0.4545454545454545 -0.9595959595959596 0.0
-0.43434343434343425 -0.9595959595959596 0.0
-0.41414141414141414 -0.9595959595959596 0.0
-0.3939393939393939 -0.9595959595959596 0.0
-0.3737373737373737 -0.9595959595959596 0.0
-0.3535353535353535 -0.9595959595959596 0.0
-0.33333333333333326 -0.9595959595959596 0.0
-0.31313131313131304 -0.9595959595959596 0.0
-0.2929292929292928 -0.9595959595959596 0.0
-0.2727272727272727 -0.9595959595959596 0.0
-0.2525252525252525 -0.9595959595959596 0.0
-0.23232323232323226 -0.9595959595959596 0.0
-0.21212121212121204 -0.9595959595959596 0.0
-0.19191919191919182 -0.9595959595959596 0.0
-0.1717171717171716 -0.9595959595959596 0.0
-0.1515151515151515 -0.9595959595959596 0.0
-0.13131313131313127 -0.9595959595959596 0.0
-0.11111111111111105 -0.9595959595959596 0.0
-0.09090909090909083 -0.9595959595959596 0.0
-0.07070707070707061 -0.9595959595959596 0.0
-0.050505050505050386 -0.9595959595959596 0.0
-0.030303030303030276 -0.9595959595959596 0.0
-0.010101010101010055 -0.9595959595959596 0.0
0.010101010101010166 -0.9595959595959596 0.0
0.030303030303030498 -0.9595959595959596 0.0
0.05050505050505061 -0.9595959595959596 0.0
0.07070707070707072 -0.9595959595959596 0.0
0.09090909090909105 -0.9595959595959596 0.0
0.11111111111111116 -0.9595959595959596 0.0
0.1313131313131315 -0.9595959595959596 0.0
0.1515151515151516 -0.9595959595959596 0.0
0.1717171717171717 -0.9595959595959596 0.0
0.19191919191919204 -0.9595959595959596 0.0
0.21212121212121215 -0.9595959595959596 0.0
[...]
POINT_DATA 10000
SCALARS u float 1
LOOKUP_TABLE default
-6.467103958129883e-06
-1.3381242752075195e-05
-1.9937753677368164e-05
-2.619624137878418e-05
-3.2201409339904785e-05
-3.789365291595459e-05
-4.334747791290283e-05
-4.86224889755249e-05
-5.364418029785156e-05
-5.84721565246582e-05
-6.304681301116943e-05
-6.739795207977295e-05
-7.15404748916626e-05
-7.541477680206299e-05
-7.903575897216797e-05
-8.238852024078369e-05
-8.553266525268555e-05
-8.83936882019043e-05
-9.104609489440918e-05
-9.347498416900635e-05
-9.584426879882812e-05
-9.801983833312988e-05
-0.00010013580322265625
-0.0001023411750793457
-0.00010451674461364746
-0.00010669231414794922
-0.00010904669761657715
-0.00011146068572998047
-0.00011393427848815918
-0.00011655688285827637
-0.00011923909187316895
-0.00012196600437164307
-0.00012472271919250488
-0.00012758374214172363
-0.00013047456741333008
-0.00013339519500732422
-0.0001363605260848999
-0.0001392364501953125
-0.00014215707778930664
-0.0001450181007385254
-0.0001478642225265503
-0.0001506805419921875
-0.00015343725681304932
-0.00015604496002197266
-0.0001585930585861206
-0.0001611262559890747
-0.00016352534294128418
-0.00016577541828155518
-0.00016808509826660156
-0.00017029047012329102
-0.00017243623733520508
-0.00017452239990234375
-0.0001764148473739624
-0.00017820298671722412
-0.00017975270748138428
-0.00018107891082763672
-0.00018200278282165527
-0.00018255412578582764
-0.00018265843391418457
-0.000182226300239563
-0.00018131732940673828
-0.00017981231212615967
-0.0001777857542037964
-0.00017523765563964844
-0.0001722872257232666
-0.00016890466213226318
-0.00016523897647857666
-0.00016129016876220703
-0.00015726685523986816
-0.00015322864055633545
-0.0001491755247116089
-0.0001453012228012085
-0.0001417100429534912
-0.0001383572816848755
-0.00013540685176849365
-0.00013290345668792725
-0.00013084709644317627
-0.0001292973756790161
-0.00012834370136260986
-0.00012792646884918213
-0.0001280754804611206
-0.000128820538520813
-0.00013013184070587158
-0.00013203918933868408
-0.00013446807861328125
-0.0001373589038848877
-0.00014072656631469727
-0.00014452636241912842
-0.00014853477478027344
-0.00015279650688171387
-0.00015714764595031738
-0.00016148388385772705
-0.00016567111015319824
-0.00016961991786956787
-0.0001733154058456421
-0.00017648935317993164
-0.00017909705638885498
-0.00018110871315002441
-0.00018237531185150146
-0.0001828223466873169
-5.46872615814209e-06
-1.1727213859558105e-05
-1.761317253112793e-05
-2.327561378479004e-05
-2.8595328330993652e-05
-3.3736228942871094e-05
-3.871321678161621e-05
-4.3451786041259766e-05
-4.79966402053833e-05
-5.251169204711914e-05
-5.675852298736572e-05
-6.0886144638061523e-05
-6.476044654846191e-05
-6.845593452453613e-05
-7.195770740509033e-05
-7.522106170654297e-05
-7.827579975128174e-05
-8.113682270050049e-05
-8.375942707061768e-05
-8.620321750640869e-05
-8.854269981384277e-05
-9.080767631530762e-05
-9.305775165557861e-05
-9.53376293182373e-05
-9.769201278686523e-05
-0.00010018050670623779
-0.00010283291339874268
-0.00010558962821960449
-0.00010851025581359863
-0.00011157989501953125
-0.0001147836446762085
-0.00011809170246124268
-0.00012156367301940918
-0.00012502074241638184
-0.00012853741645812988
-0.00013221800327301025
-0.00013586878776550293
-0.00013956427574157715
-0.00014327466487884521
-0.00014702975749969482
-0.00015082955360412598
-0.00015459954738616943
-0.00015829503536224365
-0.00016196072101593018
-0.000165596604347229
-0.00016917288303375244
-0.00017258524894714355
-0.00017589330673217773
-0.00017908215522766113
-0.00018212199211120605
-0.00018496811389923096
-0.0001876354217529297
-0.00019000470638275146
-0.00019206106662750244
-0.00019375979900360107
-0.00019504129886627197
-0.0001958310604095459
-0.0001961737871170044
-0.0001958310604095459
-0.0001948922872543335
-0.00019344687461853027
-0.0001913607120513916
-0.00018875300884246826
-0.00018562376499176025
-0.00018206238746643066
-0.00017818808555603027
-0.00017403066158294678
-0.00016970932483673096
-0.0001653730869293213
-0.00016099214553833008
-0.0001566559076309204
-0.0001525282859802246
-0.00014872848987579346
-0.00014516711235046387
-0.00014197826385498047
-0.00013922154903411865
-0.00013682246208190918
-0.00013495981693267822
-0.00013360381126403809
-0.00013278424739837646
-0.00013242661952972412
-0.00013267993927001953
-0.00013349950313568115
-0.00013490021228790283
-0.00013680756092071533
-0.0001391768455505371
-0.00014203786849975586
-0.0001453608274459839
-0.0001490861177444458
-0.00015304982662200928
-0.00015716254711151123
-0.00016136467456817627
-0.00016543269157409668
-0.000169411301612854
-0.00017309188842773438
-0.00017629563808441162
-0.00017902255058288574
-0.00018109381198883057
-0.0001825392246246338
-0.0001831650733947754
-3.7401914596557617e-06
-9.328126907348633e-06
-1.4632940292358398e-05
-1.9550323486328125e-05
-2.4393200874328613e-05
-2.8952956199645996e-05
-3.3348798751831055e-05
-3.764033317565918e-05
-4.182755947113037e-05
-4.5880675315856934e-05
-4.9814581871032715e-05
-5.367398262023926e-05
-5.735456943511963e-05
-6.091594696044922e-05
-6.42240047454834e-05
-6.739795207977295e-05
-7.037818431854248e-05
-7.31348991394043e-05
-7.56978988647461e-05
-7.805228233337402e-05
-8.04215669631958e-05
-8.26716423034668e-05
-8.496642112731934e-05
-8.733570575714111e-05
-8.982419967651367e-05
-9.240210056304932e-05
-9.529292583465576e-05
-9.834766387939453e-05
-0.00010165572166442871
-0.00010512769222259521
-0.00010885298252105713
-0.00011268258094787598
-0.00011661648750305176
-0.0001207888126373291
-0.0001249760389328003
-0.00012925267219543457
-0.00013361871242523193
-0.00013814866542816162
-0.00014263391494750977
-0.00014722347259521484
-0.00015191733837127686
-0.00015661120414733887
-0.00016129016876220703
-0.0001659691333770752
-0.00017070770263671875
-0.00017528235912322998
-0.00017973780632019043
-0.0001840442419052124
-0.0001881718635559082
-0.0001919865608215332
-0.00019550323486328125
-0.0001987665891647339
-0.00020140409469604492
-0.0002036839723587036
-0.00020541250705718994
-0.0002066195011138916
-0.00020714104175567627
-0.00020697712898254395
-0.00020621716976165771
-0.0002047717571258545
-0.00020273029804229736
-0.00020006299018859863
-0.00019690394401550293
-0.0001932680606842041
-0.00018925964832305908
-0.0001850128173828125
-0.00018055737018585205
-0.00017592310905456543
-0.00017139315605163574
-0.00016686320304870605
-0.0001624971628189087
-0.0001583397388458252
-0.00015436112880706787
-0.00015076994895935059
-0.00014750659465789795
-0.00014460086822509766
-0.00014209747314453125
-0.00014005601406097412
-0.00013847649097442627
-0.0001372992992401123
-0.0001366734504699707
-0.00013649463653564453
-0.00013683736324310303
-0.00013776123523712158
-0.0001392364501953125
-0.00014121830463409424
-0.0001436769962310791
-0.0001465827226638794
-0.00014992058277130127
-0.00015357136726379395
-0.00015747547149658203
-0.00016145408153533936
-0.00016547739505767822
-0.00016936659812927246
-0.0001729726791381836
-0.00017631053924560547
-0.00017909705638885498
-0.00018130242824554443
-0.0001828223466873169
-0.00018359720706939697
-1.3262033462524414e-06
-6.303191184997559e-06
-1.0922551155090332e-05
-1.537799835205078e-05
-1.9550323486328125e-05
-2.352893352508545e-05
-2.7447938919067383e-05
-3.129243850708008e-05
-3.507733345031738e-05
-3.88026237487793e-05
-4.2438507080078125e-05
-4.602968692779541e-05
-4.953145980834961e-05
-5.291402339935303e-05
-5.614757537841797e-05
-5.9232115745544434e-05
-6.209313869476318e-05
-6.477534770965576e-05
-6.726384162902832e-05
-6.96331262588501e-05
-7.191300392150879e-05
-7.41034746170044e-05
-7.636845111846924e-05
-7.873773574829102e-05
-8.127093315124512e-05
-8.402764797210693e-05
-8.70823860168457e-05
-9.034574031829834e-05
-9.395182132720947e-05
-9.78708267211914e-05
-0.00010198354721069336
-0.00010631978511810303
-0.00011087954044342041
-0.00011551380157470703
-0.00012035667896270752
-0.0001252591609954834
-0.00013037025928497314
-0.00013555586338043213
-0.0001408606767654419
-0.00014632940292358398
-0.00015181303024291992
-0.00015746057033538818
-0.00016319751739501953
-0.00016890466213226318
-0.00017462670803070068
-0.00018034875392913818
-0.00018587708473205566
-0.00019121170043945312
-0.00019624829292297363
-0.00020085275173187256
-0.0002050250768661499
-0.00020869076251983643
-0.0002116858959197998
-0.00021408498287200928
-0.00021569430828094482
-0.00021667778491973877
-0.0002167820930480957
-0.0002161860466003418
-0.0002148151397705078
-0.00021278858184814453
-0.00021010637283325195
-0.00020685791969299316
-0.0002032071352005005
-0.00019906461238861084
-0.00019466876983642578
-0.0001900792121887207
-0.0001854151487350464
-0.00018066167831420898
-0.00017599761486053467
-0.00017148256301879883
-0.00016714632511138916
-0.0001630038022994995
-0.00015915930271148682
-0.00015556812286376953
-0.00015236437320709229
-0.00014947354793548584
-0.00014694035053253174
-0.00014482438564300537
-0.0001430213451385498
-0.00014165043830871582
-0.0001407414674758911
-0.00014033913612365723
-0.0001402348279953003
-0.0001408308744430542
-0.00014188885688781738
-0.00014346837997436523
-0.00014550983905792236
-0.00014810264110565186
-0.00015109777450561523
-0.00015437602996826172
-0.00015810132026672363
-0.00016188621520996094
-0.00016577541828155518
-0.00016960501670837402
-0.0001732558012008667
-0.00017653405666351318
-0.00017940998077392578
-0.00018170475959777832
-0.00018334388732910156
-0.00018420815467834473
1.6242265701293945e-06
-2.726912498474121e-06
-6.780028343200684e-06
-1.0609626770019531e-05
-1.4215707778930664e-05
-1.7762184143066406e-05
-2.117455005645752e-05
-2.4527311325073242e-05
-2.796947956085205e-05
-3.133714199066162e-05
-3.4749507904052734e-05
-3.816187381744385e-05
-4.1544437408447266e-05
-4.477798938751221e-05
-4.793703556060791e-05
-5.094707012176514e-05
-5.3748488426208496e-05
-5.644559860229492e-05
-5.888938903808594e-05
-6.119906902313232e-05
-6.340444087982178e-05
-6.555020809173584e-05
-6.780028343200684e-05
-7.012486457824707e-05
-7.264316082000732e-05
-7.547438144683838e-05
-7.867813110351562e-05
-8.219480514526367e-05
-8.61436128616333e-05
-9.031593799591064e-05
-9.489059448242188e-05
-9.971857070922852e-05
-0.00010472536087036133
-0.00010998547077178955
-0.00011542439460754395
-0.00012098252773284912
-0.00012668967247009277
-0.0001325756311416626
-0.0001386404037475586
-0.00014483928680419922
-0.0001512467861175537
-0.00015777349472045898
-0.00016450881958007812
-0.0001712888479232788
-0.00017815828323364258
-0.00018493831157684326
-0.00019158422946929932
-0.00019797682762145996
-0.00020399689674377441
-0.00020945072174072266
-0.00021429359912872314
-0.0002183467149734497
-0.00022163987159729004
-0.00022399425506591797
-0.0002254694700241089
-0.00022602081298828125
-0.0002257227897644043
-0.00022451579570770264
-0.00022245943546295166
-0.00021973252296447754
-0.00021636486053466797
-0.00021250545978546143
-0.00020828843116760254
-0.0002037137746810913
-0.0001989305019378662
-0.00019407272338867188
-0.0001892298460006714
-0.00018443167209625244
-0.00017979741096496582
-0.00017529726028442383
-0.0001710057258605957
-0.00016708672046661377
-0.00016333162784576416
-0.0001599043607711792
-0.00015673041343688965
-0.0001538991928100586
-0.00015144050121307373
-0.00014923512935638428
-0.00014740228652954102
-0.0001458972692489624
-0.00014479458332061768
-0.0001440495252609253
-0.00014381110668182373
-0.0001439899206161499
-0.00014473497867584229
-0.0001459270715713501
-0.00014765560626983643
-0.00014986097812652588
-0.0001525282859802246
-0.00015564262866973877
-0.00015909969806671143
-0.0001627206802368164
-0.00016652047634124756
-0.00017026066780090332
-0.00017383694648742676
-0.00017714500427246094
-0.00018002092838287354
-0.00018236041069030762
-0.0001840442419052124
-0.0001850426197052002
5.155801773071289e-06
1.3113021850585938e-06
-2.175569534301758e-06
-5.453824996948242e-06
-8.58306884765625e-06
-1.163780689239502e-05
-1.4603137969970703e-05
-1.761317253112793e-05
-2.06679105758667e-05
-2.3856759071350098e-05
-2.70158052444458e-05
-3.0249357223510742e-05
-3.3527612686157227e-05
-3.6716461181640625e-05
-3.986060619354248e-05
-4.291534423828125e-05
-4.576146602630615e-05
-4.845857620239258e-05
-5.0902366638183594e-05
-5.316734313964844e-05
-5.535781383514404e-05
-5.748867988586426e-05
-5.964934825897217e-05
-6.19739294052124e-05
-6.449222564697266e-05
-6.74128532409668e-05
-7.067620754241943e-05
-7.43567943572998e-05
-7.852911949157715e-05
-8.310377597808838e-05
-8.809566497802734e-05
-9.334087371826172e-05
-9.891390800476074e-05
-0.00010471045970916748
-0.00011067092418670654
-0.00011685490608215332
-0.00012317299842834473
-0.00012969970703125
-0.00013637542724609375
-0.0001433342695236206
-0.00015047192573547363
-0.00015789270401000977
-0.00016555190086364746
-0.00017344951629638672
-0.00018142163753509521
-0.00018946826457977295
-0.00019735097885131836
-0.00020493566989898682
-0.0002119690179824829
-0.000218316912651062
-0.00022386014461517334
-0.00022836029529571533
-0.0002317875623703003
-0.00023406744003295898
-0.00023527443408966064
-0.00023540854454040527
-0.00023439526557922363
-0.00023251771926879883
-0.00022974610328674316
-0.00022618472576141357
-0.00022211670875549316
-0.00021754205226898193
-0.00021269917488098145
-0.0002076476812362671
-0.0002025514841079712
-0.00019744038581848145
-0.00019241869449615479
-0.00018756091594696045
-0.00018291175365447998
-0.00017851591110229492
-0.00017437338829040527
-0.00017051398754119873
-0.00016695261001586914
-0.0001636296510696411
-0.00016066431999206543
-0.00015801191329956055
-0.00015553832054138184
-0.00015336275100708008
-0.00015152990818023682
-0.0001499950885772705
-0.000148773193359375
-0.00014790892601013184
-0.00014744699001312256
-0.00014732778072357178
-0.00014771521091461182
-0.00014863908290863037
-0.00015003979206085205
-0.0001520216464996338
-0.0001544356346130371
-0.0001573115587234497
-0.00016048550605773926
-0.0001640021800994873
-0.00016760826110839844
-0.0001713484525680542
-0.00017483532428741455
-0.00017814338207244873
-0.00018100440502166748
-0.0001833587884902954
-0.00018508732318878174
-0.00018605589866638184
9.08970832824707e-06
5.811452865600586e-06
2.7865171432495117e-06
2.9802322387695312e-08
-2.637505531311035e-06
-5.260109901428223e-06
-7.88271427154541e-06
-1.0564923286437988e-05
-1.3336539268493652e-05
-1.6257166862487793e-05
-1.932680606842041e-05
-2.2485852241516113e-05
-2.5734305381774902e-05
-2.898275852203369e-05
-3.221631050109863e-05
-3.533065319061279e-05
-3.8251280784606934e-05
-4.1037797927856445e-05
-4.357099533081055e-05
-4.5940279960632324e-05
-4.811584949493408e-05
-5.023181438446045e-05
-5.239248275756836e-05
-5.46574592590332e-05
-5.7220458984375e-05
-6.0170888900756836e-05
-6.35385513305664e-05
-6.747245788574219e-05
-7.186830043792725e-05
-7.666647434234619e-05
-8.206069469451904e-05
-8.7738037109375e-05
-9.37730073928833e-05
-0.00010001659393310547
-0.00010648369789123535
-0.0001131296157836914
-0.00012001395225524902
-0.00012703239917755127
-0.00013425946235656738
-0.0001417696475982666
-0.00014962255954742432
-0.0001577436923980713
-0.00016629695892333984
-0.00017525255680084229
-0.00018453598022460938
-0.00019384920597076416
-0.00020313262939453125
-0.00021204352378845215
-0.00022029876708984375
-0.00022770464420318604
-0.00023396313190460205
-0.00023899972438812256
-0.000242576003074646
-0.00024481117725372314
-0.00024560093879699707
-0.00024512410163879395
-0.00024339556694030762
-0.00024059414863586426
-0.00023701786994934082
-0.00023257732391357422
-0.00022767484188079834
-0.00022238492965698242
-0.0002168416976928711
-0.00021126866340637207
-0.00020572543144226074
-0.0002002716064453125
-0.00019510090351104736
-0.0001901090145111084
-0.00018540024757385254
-0.00018109381198883057
-0.0001770108938217163
-0.0001733154058456421
-0.00016987323760986328
-0.00016680359840393066
-0.000164031982421875
-0.0001614093780517578
-0.00015915930271148682
-0.00015713274478912354
-0.00015532970428466797
-0.00015376508235931396
-0.00015254318714141846
-0.00015157461166381836
-0.0001509636640548706
-0.00015079975128173828
-0.00015097856521606445
-0.0001516789197921753
-0.00015279650688171387
-0.00015451014041900635
-0.0001566559076309204
-0.00015929341316223145
-0.00016236305236816406
-0.00016567111015319824
-0.00016923248767852783
-0.00017279386520385742
-0.00017631053924560547
-0.00017958879470825195
-0.00018237531185150146
-0.0001846998929977417
-0.00018647313117980957
-0.00018744170665740967
1.3440847396850586e-05
1.0579824447631836e-05
8.07642936706543e-06
5.677342414855957e-06
3.5017728805541992e-06
1.2516975402832031e-06
-1.0132789611816406e-06
-3.4868717193603516e-06
-6.020069122314453e-06
-8.821487426757812e-06
-1.1771917343139648e-05
-1.4990568161010742e-05
-1.8343329429626465e-05
-2.174079418182373e-05
-2.512335777282715e-05
-2.8461217880249023e-05
-3.160536289215088e-05
-3.458559513092041e-05
-3.7223100662231445e-05
-3.97413969039917e-05
-4.1991472244262695e-05
-4.41819429397583e-05
-4.635751247406006e-05
-4.8607587814331055e-05
-5.11854887008667e-05
-5.412101745605469e-05
-5.759298801422119e-05
-6.157159805297852e-05
-6.614625453948975e-05
-7.11977481842041e-05
-7.683038711547852e-05
-8.283555507659912e-05
-8.919835090637207e-05
-9.578466415405273e-05
-0.0001026839017868042
-0.00010971724987030029
-0.00011686980724334717
-0.00012427568435668945
-0.00013187527656555176
-0.00013972818851470947
-0.0001480579376220703
-0.00015689432621002197
-0.000166282057762146
-0.00017634034156799316
-0.0001868903636932373
-0.00019772350788116455
-0.00020864605903625488
-0.00021916627883911133
-0.00022892653942108154
-0.0002375394105911255
-0.0002447962760925293
-0.00025041401386260986
-0.0002541840076446533
-0.0002562403678894043
-0.0002566426992416382
-0.0002554208040237427
-0.00025291740894317627
-0.00024919211864471436
-0.0002445727586746216
-0.00023919343948364258
-0.00023330748081207275
-0.00022715330123901367
-0.0002208501100540161
-0.0002146214246749878
-0.0002084970474243164
-0.00020264089107513428
-0.00019712746143341064
-0.00019200146198272705
-0.00018712878227233887
-0.00018271803855895996
-0.00017867982387542725
-0.00017505884170532227
-0.00017182528972625732
-0.00016888976097106934
-0.00016626715660095215
-0.0001640021800994873
-0.00016193091869354248
-0.00016005337238311768
-0.00015845894813537598
-0.000157088041305542
-0.00015591084957122803
-0.00015503168106079102
-0.00015440583229064941
-0.00015410780906677246
-0.0001541823148727417
-0.0001548081636428833
-0.00015579164028167725
-0.00015726685523986816
-0.0001593083143234253
-0.000161781907081604
-0.00016464293003082275
-0.0001678764820098877
-0.0001712888479232788
-0.000174790620803833
-0.00017821788787841797
-0.00018143653869628906
-0.00018426775932312012
-0.0001865774393081665
-0.0001882612705230713
-0.00018921494483947754
1.8030405044555664e-05
1.5676021575927734e-05
1.3560056686401367e-05
1.1608004570007324e-05
9.715557098388672e-06
7.82310962677002e-06
5.796551704406738e-06
3.606081008911133e-06
1.1324882507324219e-06
-1.6242265701293945e-06
-4.6193599700927734e-06
-7.912516593933105e-06
-1.1429190635681152e-05
-1.5109777450561523e-05
-1.882016658782959e-05
-2.250075340270996e-05
-2.5987625122070312e-05
-2.92360782623291e-05
-3.2275915145874023e-05
-3.491342067718506e-05
-3.738701343536377e-05
-3.959238529205322e-05
-4.172325134277344e-05
-4.3973326683044434e-05
-4.647672176361084e-05
-4.9367547035217285e-05
-5.270540714263916e-05
-5.663931369781494e-05
-6.110966205596924e-05
-6.628036499023438e-05
-7.191300392150879e-05
-7.794797420501709e-05
-8.438527584075928e-05
-9.110569953918457e-05
-9.796023368835449e-05
-0.00010506808757781982
-0.00011229515075683594
-0.00011971592903137207
-0.0001274198293685913
-0.00013554096221923828
-0.0001442432403564453
-0.00015366077423095703
-0.000164031982421875
-0.00017538666725158691
-0.00018759071826934814
-0.00020037591457366943
-0.0002133399248123169
-0.00022591650485992432
-0.00023765861988067627