# vtk DataFile Version 3.0
2D PINN Solution
ASCII
DATASET STRUCTURED_GRID
DIMENSIONS 100 100 1
POINTS 10000 float
-1.0 -1.0 0.0
-0.9797979797979798 -1.0 0.0
-0.9595959595959596 -1.0 0.0
-0.9393939393939394 -1.0 0.0
-0.9191919191919192 -1.0 0.0
-0.898989898989899 -1.0 0.0
-0.8787878787878788 -1.0 0.0
-0.8585858585858586 -1.0 0.0
-0.8383838383838383 -1.0 0.0
-0.8181818181818181 -1.0 0.0
-0.797979797979798 -1.0 0.0
-0.7777777777777778 -1.0 0.0
-0.7575757575757576 -1.0 0.0
-0.7373737373737373 -1.0 0.0
-0.7171717171717171 -1.0 0.0
-0.696969696969697 -1.0 0.0
-0.6767676767676767 -1.0 0.0
-0.6565656565656566 -1.0 0.0
-0.6363636363636364 -1.0 0.0
-0.6161616161616161 -1.0 0.0
-0.5959595959595959 -1.0 0.0
-0.5757575757575757 -1.0 0.0
-0.5555555555555556 -1.0 0.0
-0.5353535353535352 -1.0 0.0
-0.5151515151515151 -1.0 0.0
-0.4949494949494949 -1.0 0.0
-0.4747474747474747 -1.0 0.0
-0.4545454545454545 -1.0 0.0
-0.43434343434343425 -1.0 0.0
-0.41414141414141414 -1.0 0.0
-0.3939393939393939 -1.0 0.0
-0.3737373737373737 -1.0 0.0
-0.3535353535353535 -1.0 0.0
-0.33333333333333326 -1.0 0.0
-0.31313131313131304 -1.0 0.0
-0.2929292929292928 -1.0 0.0
-0.2727272727272727 -1.0 0.0
-0.2525252525252525 -1.0 0.0
-0.23232323232323226 -1.0 0.0
-0.21212121212121204 -1.0 0.0
-0.19191919191919182 -1.0 0.0
-0.1717171717171716 -1.0 0.0
-0.1515151515151515 -1.0 0.0
-0.13131313131313127 -1.0 0.0
-0.11111111111111105 -1.0 0.0
-0.09090909090909083 -1.0 0.0
-0.07070707070707061 -1.0 0.0
-0.050505050505050386 -1.0 0.0
-0.030303030303030276 -1.0 0.0
-0.010101010101010055 -1.0 0.0
0.010101010101010166 -1.0 0.0
0.030303030303030498 -1.0 0.0
0.05050505050505061 -1.0 0.0
0.07070707070707072 -1.0 0.0
0.09090909090909105 -1.0 0.0
0.11111111111111116 -1.0 0.0
0.1313131313131315 -1.0 0.0
0.1515151515151516 -1.0 0.0
0.1717171717171717 -1.0 0.0
0.19191919191919204 -1.0 0.0
0.21212121212121215 -1.0 0.0
0.2323232323232325 -1.0 0.0
0.2525252525252526 -1.0 0.0
0.27272727272727293 -1.0 0.0
0.29292929292929304 -1.0 0.0
0.31313131313131315 -1.0 0.0
0.3333333333333335 -1.0 0.0
0.3535353535353536 -1.0 0.0
0.3737373737373739 -1.0 0.0
0.39393939393939403 -1.0 0.0
0.41414141414141437 -1.0 0.0
0.4343434343434345 -1.0 0.0
0.4545454545454546 -1.0 0.0
0.4747474747474749 -1.0 0.0
0.49494949494949503 -1.0 0.0
0.5151515151515154 -1.0 0.0
0.5353535353535355 -1.0 0.0
0.5555555555555556 -1.0 0.0
0.5757575757575759 -1.0 0.0
0.595959595959596 -1.0 0.0
0.6161616161616164 -1.0 0.0
0.6363636363636365 -1.0 0.0
0.6565656565656568 -1.0 0.0
0.6767676767676769 -1.0 0.0
0.696969696969697 -1.0 0.0
0.7171717171717173 -1.0 0.0
0.7373737373737375 -1.0 0.0
0.7575757575757578 -1.0 0.0
0.7777777777777779 -1.0 0.0
0.7979797979797982 -1.0 0.0
0.8181818181818183 -1.0 0.0
0.8383838383838385 -1.0 0.0
0.8585858585858588 -1.0 0.0
0.8787878787878789 -1.0 0.0
0.8989898989898992 -1.0 0.0
0.9191919191919193 -1.0 0.0
0.9393939393939394 -1.0 0.0
0.9595959595959598 -1.0 0.0
0.9797979797979799 -1.0 0.0
1.0 -1.0 0.0
-1.0 -0.9797979797979798 0.0
-0.9797979797979798 -0.9797979797979798 0.0
-0.9595959595959596 -0.9797979797979798 0.0
-0.9393939393939394 -0.9797979797979798 0.0
-0.9191919191919192 -0.9797979797979798 0.0
-0.898989898989899 -0.9797979797979798 0.0
-0.8787878787878788 -0.9797979797979798 0.0
-0.8585858585858586 -0.9797979797979798 0.0
-0.8383838383838383 -0.9797979797979798 0.0
-0.8181818181818181 -0.9797979797979798 0.0
-0.797979797979798 -0.9797979797979798 0.0
-0.7777777777777778 -0.9797979797979798 0.0
-0.7575757575757576 -0.9797979797979798 0.0
-0.7373737373737373 -0.9797979797979798 0.0
-0.7171717171717171 -0.9797979797979798 0.0
-0.696969696969697 -0.9797979797979798 0.0
-0.6767676767676767 -0.9797979797979798 0.0
-0.6565656565656566 -0.9797979797979798 0.0
-0.6363636363636364 -0.9797979797979798 0.0
-0.6161616161616161 -0.9797979797979798 0.0
-0.5959595959595959 -0.9797979797979798 0.0
-0.5757575757575757 -0.9797979797979798 0.0
-0.5555555555555556 -0.9797979797979798 0.0
-0.5353535353535352 -0.9797979797979798 0.0
-0.5151515151515151 -0.9797979797979798 0.0
-0.4949494949494949 -0.9797979797979798 0.0
-0.4747474747474747 -0.9797979797979798 0.0
-0.4545454545454545 -0.9797979797979798 0.0
-0.43434343434343425 -0.9797979797979798 0.0
-0.41414141414141414 -0.9797979797979798 0.0
-0.3939393939393939 -0.9797979797979798 0.0
-0.3737373737373737 -0.9797979797979798 0.0
-0.3535353535353535 -0.9797979797979798 0.0
-0.33333333333333326 -0.9797979797979798 0.0
-0.31313131313131304 -0.9797979797979798 0.0
-0.2929292929292928 -0.9797979797979798 0.0
-0.2727272727272727 -0.9797979797979798 0.0
-0.2525252525252525 -0.9797979797979798 0.0
-0.23232323232323226 -0.9797979797979798 0.0
-0.21212121212121204 -0.9797979797979798 0.0
-0.19191919191919182 -0.9797979797979798 0.0
-0.1717171717171716 -0.9797979797979798 0.0
-0.1515151515151515 -0.9797979797979798 0.0
-0.13131313131313127 -0.9797979797979798 0.0
-0.11111111111111105 -0.9797979797979798 0.0
-0.09090909090909083 -0.9797979797979798 0.0
-0.07070707070707061 -0.9797979797979798 0.0
-0.050505050505050386 -0.9797979797979798 0.0
-0.030303030303030276 -0.9797979797979798 0.0
-0.010101010101010055 -0.9797979797979798 0.0
0.010101010101010166 -0.9797979797979798 0.0
0.030303030303030498 -0.9797979797979798 0.0
0.05050505050505061 -0.9797979797979798 0.0
0.07070707070707072 -0.9797979797979798 0.0
0.09090909090909105 -0.9797979797979798 0.0
0.11111111111111116 -0.9797979797979798 0.0
0.1313131313131315 -0.9797979797979798 0.0
0.1515151515151516 -0.9797979797979798 0.0
0.1717171717171717 -0.9797979797979798 0.0
0.19191919191919204 -0.9797979797979798 0.0
0.21212121212121215 -0.9797979797979798 0.0
0.2323232323232325 -0.9797979797979798 0.0
0.2525252525252526 -0.9797979797979798 0.0
0.27272727272727293 -0.9797979797979798 0.0
0.29292929292929304 -0.9797979797979798 0.0
0.31313131313131315 -0.9797979797979798 0.0
0.3333333333333335 -0.9797979797979798 0.0
0.3535353535353536 -0.9797979797979798 0.0
0.3737373737373739 -0.9797979797979798 0.0
0.39393939393939403 -0.9797979797979798 0.0
0.41414141414141437 -0.9797979797979798 0.0
0.4343434343434345 -0.9797979797979798 0.0
0.4545454545454546 -0.9797979797979798 0.0
0.4747474747474749 -0.9797979797979798 0.0
0.49494949494949503 -0.9797979797979798 0.0
0.5151515151515154 -0.9797979797979798 0.0
0.5353535353535355 -0.9797979797979798 0.0
0.5555555555555556 -0.9797979797979798 0.0
0.5757575757575759 -0.9797979797979798 0.0
0.595959595959596 -0.9797979797979798 0.0
0.6161616161616164 -0.9797979797979798 0.0
0.6363636363636365 -0.9797979797979798 0.0
0.6565656565656568 -0.9797979797979798 0.0
0.6767676767676769 -0.9797979797979798 0.0
0.696969696969697 -0.9797979797979798 0.0
0.7171717171717173 -0.9797979797979798 0.0
0.7373737373737375 -0.9797979797979798 0.0
0.7575757575757578 -0.9797979797979798 0.0
0.7777777777777779 -0.9797979797979798 0.0
0.7979797979797982 -0.9797979797979798 0.0
0.8181818181818183 -0.9797979797979798 0.0
0.8383838383838385 -0.9797979797979798 0.0
0.8585858585858588 -0.9797979797979798 0.0
0.8787878787878789 -0.9797979797979798 0.0
0.8989898989898992 -0.9797979797979798 0.0
0.9191919191919193 -0.9797979797979798 0.0
0.9393939393939394 -0.9797979797979798 0.0
0.9595959595959598 -0.9797979797979798 0.0
0.9797979797979799 -0.9797979797979798 0.0
1.0 -0.9797979797979798 0.0
-1.0 -0.9595959595959596 0.0
-0.9797979797979798 -0.9595959595959596 0.0
-0.9595959595959596 -0.9595959595959596 0.0
-0.9393939393939394 -0.9595959595959596 0.0
-0.9191919191919192 -0.9595959595959596 0.0
-0.898989898989899 -0.9595959595959596 0.0
-0.8787878787878788 -0.9595959595959596 0.0
-0.8585858585858586 -0.9595959595959596 0.0
-0.8383838383838383 -0.9595959595959596 0.0
-0.8181818181818181 -0.9595959595959596 0.0
-0.797979797979798 -0.9595959595959596 0.0
-0.7777777777777778 -0.9595959595959596 0.0
-0.7575757575757576 -0.9595959595959596 0.0
-0.7373737373737373 -0.9595959595959596 0.0
-0.7171717171717171 -0.9595959595959596 0.0
-0.696969696969697 -0.9595959595959596 0.0
-0.6767676767676767 -0.9595959595959596 0.0
-0.6565656565656566 -0.9595959595959596 0.0
-0.6363636363636364 -0.9595959595959596 0.0
-0.6161616161616161 -0.9595959595959596 0.0
-0.5959595959595959 -0.9595959595959596 0.0
-0.5757575757575757 -0.9595959595959596 0.0
-0.5555555555555556 -0.9595959595959596 0.0
-0.5353535353535352 -0.9595959595959596 0.0
-0.5151515151515151 -0.9595959595959596 0.0
-0.4949494949494949 -0.9595959595959596 0.0
-0.4747474747474747 -0.9595959595959596 0.0
-0.4545454545454545 -0.9595959595959596 0.0
-0.43434343434343425 -0.9595959595959596 0.0
-0.41414141414141414 -0.9595959595959596 0.0
-0.3939393939393939 -0.9595959595959596 0.0
-0.3737373737373737 -0.9595959595959596 0.0
-0.3535353535353535 -0.9595959595959596 0.0
-0.33333333333333326 -0.9595959595959596 0.0
-0.31313131313131304 -0.9595959595959596 0.0
-0.2929292929292928 -0.9595959595959596 0.0
-0.2727272727272727 -0.9595959595959596 0.0
-0.2525252525252525 -0.9595959595959596 0.0
-0.23232323232323226 -0.9595959595959596 0.0
-0.21212121212121204 -0.9595959595959596 0.0
-0.19191919191919182 -0.9595959595959596 0.0
-0.1717171717171716 -0.9595959595959596 0.0
-0.1515151515151515 -0.9595959595959596 0.0
-0.13131313131313127 -0.9595959595959596 0.0
-0.11111111111111105 -0.9595959595959596 0.0
-0.09090909090909083 -0.9595959595959596 0.0
-0.07070707070707061 -0.9595959595959596 0.0
-0.050505050505050386 -0.9595959595959596 0.0
-0.030303030303030276 -0.9595959595959596 0.0
-0.010101010101010055 -0.9595959595959596 0.0
0.010101010101010166 -0.9595959595959596 0.0
0.030303030303030498 -0.9595959595959596 0.0
0.05050505050505061 -0.9595959595959596 0.0
0.07070707070707072 -0.9595959595959596 0.0
0.09090909090909105 -0.9595959595959596 0.0
0.11111111111111116 -0.9595959595959596 0.0
0.1313131313131315 -0.9595959595959596 0.0
0.1515151515151516 -0.9595959595959596 0.0
0.1717171717171717 -0.9595959595959596 0.0
0.19191919191919204 -0.9595959595959596 0.0
0.21212121212121215 -0.9595959595959596 0.0
[...]
POINT_DATA 10000
SCALARS u float 1
LOOKUP_TABLE default
-7.446110248565674e-05
-9.557604789733887e-05
-0.00011482834815979004
-0.00013208389282226562
-0.00014759600162506104
-0.0001615285873413086
-0.00017446279525756836
-0.00018671154975891113
-0.0001986175775527954
-0.00021034479141235352
-0.00022186338901519775
-0.00023323297500610352
-0.000244140625
-0.0002544522285461426
-0.0002638399600982666
-0.0002719759941101074
-0.00027871131896972656
-0.00028377771377563477
-0.00028714537620544434
-0.00028868019580841064
-0.00028845667839050293
-0.0002863854169845581
-0.00028267502784729004
-0.0002774745225906372
-0.000271037220954895
-0.00026363134384155273
-0.0002555549144744873
-0.0002471357583999634
-0.00023864209651947021
-0.0002305358648300171
-0.0002227574586868286
-0.00021563470363616943
-0.00020898878574371338
-0.00020295381546020508
-0.00019730627536773682
-0.00019189715385437012
-0.00018659234046936035
-0.00018128752708435059
-0.00017574429512023926
-0.00016993284225463867
-0.0001636892557144165
-0.0001569986343383789
-0.00014975666999816895
-0.000142022967338562
-0.00013364851474761963
-0.00012479722499847412
-0.00011542439460754395
-0.00010585784912109375
-9.614229202270508e-05
-8.64863395690918e-05
-7.721781730651855e-05
-6.842613220214844e-05
-6.0245394706726074e-05
-5.288422107696533e-05
-4.628300666809082e-05
-4.069507122039795e-05
-3.577768802642822e-05
-3.167986869812012e-05
-2.822279930114746e-05
-2.5287270545959473e-05
-2.275407314300537e-05
-2.059340476989746e-05
-1.868605613708496e-05
-1.6897916793823242e-05
-1.5169382095336914e-05
-1.3485550880432129e-05
-1.1831521987915039e-05
-1.0073184967041016e-05
-8.27014446258545e-06
-6.3925981521606445e-06
-4.455447196960449e-06
-2.4586915969848633e-06
-4.172325134277344e-07
1.6987323760986328e-06
3.844499588012695e-06
6.020069122314453e-06
8.195638656616211e-06
1.0505318641662598e-05
1.2725591659545898e-05
1.4960765838623047e-05
1.7181038856506348e-05
1.9475817680358887e-05
2.1785497665405273e-05
2.4065375328063965e-05
2.6270747184753418e-05
2.8520822525024414e-05
3.0741095542907715e-05
3.2901763916015625e-05
3.504753112792969e-05
3.7029385566711426e-05
3.902614116668701e-05
4.081428050994873e-05
4.245340824127197e-05
4.3898820877075195e-05
4.506111145019531e-05
4.604458808898926e-05
4.6700239181518555e-05
4.698336124420166e-05
4.696846008300781e-05
4.652142524719238e-05
-7.259845733642578e-05
-9.390711784362793e-05
-0.00011339783668518066
-0.00013065338134765625
-0.00014628469944000244
-0.00016041100025177002
-0.00017364323139190674
-0.0001863241195678711
-0.00019881129264831543
-0.00021123886108398438
-0.00022365152835845947
-0.00023601949214935303
-0.00024794042110443115
-0.00025913119316101074
-0.000269278883934021
-0.0002780109643936157
-0.00028511881828308105
-0.00029040873050689697
-0.00029386579990386963
-0.00029534101486206055
-0.00029499828815460205
-0.00029280781745910645
-0.00028893351554870605
-0.00028358399868011475
-0.00027689337730407715
-0.00026923418045043945
-0.000260770320892334
-0.00025194883346557617
-0.00024296343326568604
-0.000234261155128479
-0.000225946307182312
-0.00021825730800628662
-0.00021120905876159668
-0.00020475685596466064
-0.00019882619380950928
-0.0001932084560394287
-0.00018768012523651123
-0.00018224120140075684
-0.00017659366130828857
-0.0001706928014755249
-0.00016424059867858887
-0.00015741586685180664
-0.00014995038509368896
-0.0001417994499206543
-0.0001331418752670288
-0.00012390315532684326
-0.00011423230171203613
-0.0001042783260345459
-9.419023990631104e-05
-8.428096771240234e-05
-7.456541061401367e-05
-6.546080112457275e-05
-5.7056546211242676e-05
-4.9442052841186523e-05
-4.266202449798584e-05
-3.68654727935791e-05
-3.190338611602783e-05
-2.7745962142944336e-05
-2.4273991584777832e-05
-2.142786979675293e-05
-1.9043684005737305e-05
-1.6987323760986328e-05
-1.5273690223693848e-05
-1.3709068298339844e-05
-1.2278556823730469e-05
-1.0848045349121094e-05
-9.387731552124023e-06
-7.88271427154541e-06
-6.3925981521606445e-06
-4.783272743225098e-06
-3.0994415283203125e-06
-1.3113021850585938e-06
5.066394805908203e-07
2.4139881134033203e-06
4.380941390991211e-06
6.3478946685791016e-06
8.434057235717773e-06
1.0520219802856445e-05
1.2695789337158203e-05
1.4871358871459961e-05
1.7091631889343262e-05
1.9311904907226562e-05
2.16066837310791e-05
2.4005770683288574e-05
2.6285648345947266e-05
2.872943878173828e-05
3.1113624572753906e-05
3.355741500854492e-05
3.598630428314209e-05
3.835558891296387e-05
4.076957702636719e-05
4.304945468902588e-05
4.525482654571533e-05
4.735589027404785e-05
4.92781400680542e-05
5.097687244415283e-05
5.24669885635376e-05
5.373358726501465e-05
5.46574592590332e-05
5.53131103515625e-05
-7.556378841400146e-05
-9.676814079284668e-05
-0.00011596083641052246
-0.00013300776481628418
-0.00014825165271759033
-0.00016205012798309326
-0.00017493963241577148
-0.0001874864101409912
-0.00019988417625427246
-0.0002124309539794922
-0.00022517144680023193
-0.0002378523349761963
-0.00025022029876708984
-0.0002618730068206787
-0.00027245283126831055
-0.0002815127372741699
-0.00028887391090393066
-0.00029431283473968506
-0.0002977997064590454
-0.0002993345260620117
-0.00029900670051574707
-0.00029684603214263916
-0.00029312074184417725
-0.0002878457307815552
-0.0002812892198562622
-0.00027358531951904297
-0.0002651214599609375
-0.00025603175163269043
-0.0002468228340148926
-0.00023767352104187012
-0.00022898614406585693
-0.0002208501100540161
-0.0002133697271347046
-0.0002065598964691162
-0.00020036101341247559
-0.00019453465938568115
-0.00018891692161560059
-0.00018334388732910156
-0.00017760694026947021
-0.00017152726650238037
-0.0001650005578994751
-0.0001579374074935913
-0.00015020370483398438
-0.00014187395572662354
-0.00013290345668792725
-0.0001233518123626709
-0.00011336803436279297
-0.0001029670238494873
-9.255111217498779e-05
-8.222460746765137e-05
-7.218122482299805e-05
-6.277859210968018e-05
-5.404651165008545e-05
-4.616379737854004e-05
-3.9249658584594727e-05
-3.330409526824951e-05
-2.8192996978759766e-05
-2.4065375328063965e-05
-2.059340476989746e-05
-1.7821788787841797e-05
-1.563131809234619e-05
-1.3783574104309082e-05
-1.2233853340148926e-05
-1.0907649993896484e-05
-9.670853614807129e-06
-8.508563041687012e-06
-7.3462724685668945e-06
-6.124377250671387e-06
-4.842877388000488e-06
-3.471970558166504e-06
-2.041459083557129e-06
-5.364418029785156e-07
1.0728836059570312e-06
2.816319465637207e-06
4.5746564865112305e-06
6.407499313354492e-06
8.299946784973145e-06
1.0266900062561035e-05
1.2278556823730469e-05
1.4409422874450684e-05
1.652538776397705e-05
1.8775463104248047e-05
2.1055340766906738e-05
2.3424625396728516e-05
2.586841583251953e-05
2.8327107429504395e-05
3.090500831604004e-05
3.351271152496338e-05
3.6150217056274414e-05
3.889203071594238e-05
4.1544437408447266e-05
4.430115222930908e-05
4.6879053115844727e-05
4.9486756324768066e-05
5.196034908294678e-05
5.431473255157471e-05
5.652010440826416e-05
5.856156349182129e-05
6.034970283508301e-05
6.188452243804932e-05
-8.215010166168213e-05
-0.00010295212268829346
-0.00012169778347015381
-0.00013811886310577393
-0.0001526474952697754
-0.00016579031944274902
-0.00017802417278289795
-0.00018984079360961914
-0.00020174682140350342
-0.00021392107009887695
-0.0002263486385345459
-0.00023891031742095947
-0.0002513378858566284
-0.00026303529739379883
-0.00027370452880859375
-0.0002829432487487793
-0.0002903789281845093
-0.00029590725898742676
-0.0002994835376739502
-0.00030109286308288574
-0.0003008842468261719
-0.0002989470958709717
-0.0002954453229904175
-0.00029049813747406006
-0.00028415024280548096
-0.00027674436569213867
-0.00026835501194000244
-0.0002593696117401123
-0.0002500861883163452
-0.00024081766605377197
-0.00023177266120910645
-0.00022335350513458252
-0.0002155900001525879
-0.0002084672451019287
-0.00020197033882141113
-0.00019598007202148438
-0.00019031763076782227
-0.00018458068370819092
-0.00017876923084259033
-0.00017261505126953125
-0.00016595423221588135
-0.00015875697135925293
-0.00015084445476531982
-0.00014226138591766357
-0.00013299286365509033
-0.00012315809726715088
-0.00011274218559265137
-0.00010210275650024414
-9.119510650634766e-05
-8.057057857513428e-05
-7.015466690063477e-05
-6.039440631866455e-05
-5.137920379638672e-05
-4.32133674621582e-05
-3.610551357269287e-05
-2.9981136322021484e-05
-2.4840235710144043e-05
-2.0638108253479004e-05
-1.7240643501281738e-05
-1.461803913116455e-05
-1.2576580047607422e-05
-1.0877847671508789e-05
-9.581446647644043e-06
-8.493661880493164e-06
-7.539987564086914e-06
-6.571412086486816e-06
-5.677342414855957e-06
-4.738569259643555e-06
-3.7103891372680664e-06
-2.592802047729492e-06
-1.3262033462524414e-06
-1.4901161193847656e-08
1.4007091522216797e-06
2.905726432800293e-06
4.5299530029296875e-06
6.198883056640625e-06
7.957220077514648e-06
9.804964065551758e-06
1.1712312698364258e-05
1.3709068298339844e-05
1.5810132026672363e-05
1.800060272216797e-05
2.022087574005127e-05
2.2590160369873047e-05
2.504885196685791e-05
2.7626752853393555e-05
3.0234456062316895e-05
3.297626972198486e-05
3.580749034881592e-05
3.871321678161621e-05
4.1618943214416504e-05
4.4599175453186035e-05
4.754960536956787e-05
5.058944225311279e-05
5.352497100830078e-05
5.6356191635131836e-05
5.917251110076904e-05
6.176531314849854e-05
6.423890590667725e-05
6.654858589172363e-05
-9.12398099899292e-05
-0.00011152029037475586
-0.00012953579425811768
-0.00014516711235046387
-0.00015881657600402832
-0.00017102062702178955
-0.00018227100372314453
-0.0001932084560394287
-0.00020422041416168213
-0.00021554529666900635
-0.00022730231285095215
-0.00023931264877319336
-0.00025132298469543457
-0.00026282668113708496
-0.00027336180210113525
-0.00028248131275177
-0.0002899467945098877
-0.00029553472995758057
-0.0002991706132888794
-0.0003009885549545288
-0.00030097365379333496
-0.0002993345260620117
-0.00029619038105010986
-0.0002915710210800171
-0.0002857297658920288
-0.0002787262201309204
-0.0002706944942474365
-0.0002619624137878418
-0.00025278329849243164
-0.00024349987506866455
-0.00023441016674041748
-0.00022581219673156738
-0.0002177506685256958
-0.00021044909954071045
-0.0002038031816482544
-0.00019763410091400146
-0.00019177794456481934
-0.000186040997505188
-0.00018015503883361816
-0.00017392635345458984
-0.00016717612743377686
-0.00015985965728759766
-0.00015175342559814453
-0.00014297664165496826
-0.0001334846019744873
-0.0001232922077178955
-0.0001125633716583252
-0.00010149180889129639
-9.033083915710449e-05
-7.925927639007568e-05
-6.854534149169922e-05
-5.836784839630127e-05
-4.903972148895264e-05
-4.063546657562256e-05
-3.330409526824951e-05
-2.7060508728027344e-05
-2.1845102310180664e-05
-1.7642974853515625e-05
-1.4349818229675293e-05
-1.1801719665527344e-05
-9.819865226745605e-06
-8.463859558105469e-06
-7.361173629760742e-06
-6.496906280517578e-06
-5.826354026794434e-06
-5.185604095458984e-06
-4.51505184173584e-06
-3.7401914596557617e-06
-2.9206275939941406e-06
-2.0712614059448242e-06
-9.98377799987793e-07
1.341104507446289e-07
1.385807991027832e-06
2.7418136596679688e-06
4.231929779052734e-06
5.811452865600586e-06
7.450580596923828e-06
9.194016456604004e-06
1.1026859283447266e-05
1.290440559387207e-05
1.4916062355041504e-05
1.7061829566955566e-05
1.9282102584838867e-05
2.162158489227295e-05
2.4050474166870117e-05
2.664327621459961e-05
2.931058406829834e-05
3.212690353393555e-05
3.504753112792969e-05
3.8057565689086914e-05
4.1171908378601074e-05
4.433095455169678e-05
4.7579407691955566e-05
5.08725643157959e-05
5.404651165008545e-05
5.7324767112731934e-05
6.054341793060303e-05
6.362795829772949e-05
6.663799285888672e-05
6.955862045288086e-05
-0.00010192394256591797
-0.00012148916721343994
-0.00013862550258636475
-0.00015336275100708008
-0.00016604363918304443
-0.00017717480659484863
-0.00018744170665740967
-0.00019720196723937988
-0.00020697712898254395
-0.00021724402904510498
-0.00022803246974945068
-0.00023922324180603027
-0.0002505779266357422
-0.00026151537895202637
-0.00027173757553100586
-0.0002806633710861206
-0.0002880692481994629
-0.00029365718364715576
-0.0002974271774291992
-0.0002993345260620117
-0.000299602746963501
-0.00029830634593963623
-0.0002956092357635498
-0.0002915114164352417
-0.0002861618995666504
-0.00027967989444732666
-0.0002721250057220459
-0.0002638101577758789
-0.0002549290657043457
-0.0002458244562149048
-0.00023673474788665771
-0.00022806227207183838
-0.0002199411392211914
-0.00021252036094665527
-0.00020572543144226074
-0.00019945204257965088
-0.00019350647926330566
-0.00018769502639770508
-0.00018177926540374756
-0.00017555058002471924
-0.00016877055168151855
-0.00016129016876220703
-0.00015307962894439697
-0.00014406442642211914
-0.00013431906700134277
-0.00012387335300445557
-0.0001128464937210083
-0.000101432204246521
-8.988380432128906e-05
-7.839500904083252e-05
-6.732344627380371e-05
-5.683302879333496e-05
-4.7147274017333984e-05
-3.847479820251465e-05
-3.096461296081543e-05
-2.4497509002685547e-05
-1.926720142364502e-05
-1.5079975128173828e-05
-1.1831521987915039e-05
-9.47713851928711e-06
-7.644295692443848e-06
-6.496906280517578e-06
-5.677342414855957e-06
-5.0514936447143555e-06
-4.589557647705078e-06
-4.187226295471191e-06
-3.725290298461914e-06
-3.2782554626464844e-06
-2.6226043701171875e-06
-1.8477439880371094e-06
-1.0579824447631836e-06
-2.9802322387695312e-08
1.1473894119262695e-06
2.3692846298217773e-06
3.7550926208496094e-06
5.185604095458984e-06
6.750226020812988e-06
8.478760719299316e-06
1.0162591934204102e-05
1.2055039405822754e-05
1.4036893844604492e-05
1.6108155250549316e-05
1.8298625946044922e-05
2.059340476989746e-05
2.302229404449463e-05
2.5600194931030273e-05
2.8327107429504395e-05
3.11434268951416e-05
3.409385681152344e-05
3.7223100662231445e-05
4.038214683532715e-05
4.367530345916748e-05
4.7072768211364746e-05
5.05298376083374e-05
5.40316104888916e-05
5.745887756347656e-05
6.0930848121643066e-05
6.443262100219727e-05
6.781518459320068e-05
7.11679458618164e-05
-0.00011351704597473145
-0.00013215839862823486
-0.00014835596084594727
-0.00016210973262786865
-0.00017383694648742676
-0.00018393993377685547
-0.0001929253339767456
-0.000201493501663208
-0.0002100914716720581
-0.0002190619707107544
-0.00022864341735839844
-0.00023874640464782715
-0.0002491474151611328
-0.00025938451290130615
-0.00026914477348327637
-0.0002777576446533203
-0.0002849847078323364
-0.00029055774211883545
-0.00029443204402923584
-0.0002966076135635376
-0.0002971738576889038
-0.0002962946891784668
-0.0002940446138381958
-0.00029046833515167236
-0.0002856999635696411
-0.0002797842025756836
-0.00027282536029815674
-0.00026507675647735596
-0.00025653839111328125
-0.0002477318048477173
-0.00023886561393737793
-0.00023023784160614014
-0.0002221614122390747
-0.00021466612815856934
-0.00020781159400939941
-0.00020147860050201416
-0.0001954883337020874
-0.00018964707851409912
-0.0001837313175201416
-0.00017745792865753174
-0.0001706629991531372
-0.00016310811042785645
-0.00015485286712646484
-0.00014568865299224854
-0.00013571977615356445
-0.0001249760389328003
-0.00011363625526428223
-0.00010187923908233643
-8.994340896606445e-05
-7.811188697814941e-05
-6.660819053649902e-05
-5.576014518737793e-05
-4.57763671875e-05
-3.688037395477295e-05
-2.905726432800293e-05
-2.2485852241516113e-05
-1.722574234008789e-05
-1.3023614883422852e-05
-9.894371032714844e-06
-7.599592208862305e-06
-6.034970283508301e-06
-5.066394805908203e-06
-4.4405460357666016e-06
-4.1425228118896484e-06
-3.933906555175781e-06
-3.7103891372680664e-06
-3.5017728805541992e-06
-3.159046173095703e-06
-2.7120113372802734e-06
-2.0712614059448242e-06
-1.3560056686401367e-06
-4.6193599700927734e-07
5.811452865600586e-07
1.817941665649414e-06
3.129243850708008e-06
4.500150680541992e-06
6.064772605895996e-06
7.62939453125e-06
9.357929229736328e-06
1.1235475540161133e-05
1.3187527656555176e-05
1.5228986740112305e-05
1.7389655113220215e-05
1.9684433937072754e-05
2.2083520889282227e-05
2.4646520614624023e-05
2.734363079071045e-05
3.014504909515381e-05
3.314018249511719e-05
3.625452518463135e-05
3.950297832489014e-05
4.2885541915893555e-05
4.634261131286621e-05
4.9874186515808105e-05
5.3435564041137695e-05
5.7116150856018066e-05
6.07222318649292e-05
6.440281867980957e-05
6.808340549468994e-05
7.173418998718262e-05
-0.00012534856796264648
-0.00014309585094451904
-0.00015829503536224365
-0.0001710951328277588
-0.00018177926540374756
-0.00019071996212005615
-0.0001986771821975708
-0.00020591914653778076
-0.0002132505178451538
-0.0002209693193435669
-0.0002291947603225708
-0.000238075852394104
-0.0002473890781402588
-0.00025673210620880127
-0.00026579201221466064
-0.0002740323543548584
-0.0002810359001159668
-0.00028662383556365967
-0.0002906322479248047
-0.0002930760383605957
-0.0002939850091934204
-0.00029352307319641113
-0.0002917349338531494
-0.0002887248992919922
-0.00028455257415771484
-0.0002792626619338989
-0.000272899866104126
-0.00026564300060272217
-0.0002577155828475952
-0.0002492666244506836
-0.0002407282590866089
-0.00023230910301208496
-0.00022433698177337646
-0.00021688640117645264
-0.00021001696586608887
-0.0002037137746810913
-0.0001977086067199707
-0.00019188225269317627
-0.00018599629402160645
-0.00017976760864257812
-0.00017286837100982666
-0.00016535818576812744
-0.00015701353549957275
-0.00014771521091461182
-0.00013753771781921387
-0.0001266002655029297
-0.00011494755744934082
-0.00010286271572113037
-9.055435657501221e-05
-7.836520671844482e-05
-6.656348705291748e-05
-5.53131103515625e-05
-4.4971704483032227e-05
-3.580749034881592e-05
-2.777576446533203e-05
-2.111494541168213e-05
-1.570582389831543e-05
-1.1563301086425781e-05
-8.463859558105469e-06
-6.3478946685791016e-06
-4.9620866775512695e-06
-4.172325134277344e-06
-3.814697265625e-06
-3.6954879760742188e-06
-3.7401914596557617e-06
-3.769993782043457e-06
-3.680586814880371e-06
-3.5017728805541992e-06
-3.1888484954833984e-06
-2.6673078536987305e-06
-1.996755599975586e-06
-1.1324882507324219e-06
-7.450580596923828e-08
1.0281801223754883e-06
2.3245811462402344e-06
3.769993782043457e-06
5.334615707397461e-06
6.943941116333008e-06
8.64267349243164e-06
1.0505318641662598e-05
1.245737075805664e-05
1.4513731002807617e-05
1.6629695892333984e-05
1.893937587738037e-05
2.1323561668395996e-05
2.3856759071350098e-05
2.6553869247436523e-05
2.937018871307373e-05
3.2335519790649414e-05
3.5434961318969727e-05
3.869831562042236e-05
4.202127456665039e-05
4.552304744720459e-05
4.909932613372803e-05
5.27501106262207e-05
5.6415796279907227e-05
6.021559238433838e-05
6.400048732757568e-05
6.77257776260376e-05
7.158517837524414e-05
-0.00013720989227294922
-0.0001538693904876709
-0.00016804039478302002
-0.0001799166202545166
-0.00018960237503051758
-0.00019758939743041992
-0.0002043396234512329
-0.0002104640007019043
-0.0002164691686630249
-0.00022280216217041016
-0.00022970139980316162
-0.00023724138736724854
-0.0002454221248626709
-0.00025378167629241943
-0.00026206672191619873
-0.0002698153257369995
-0.00027655065059661865
-0.00028209388256073
-0.0002862662076950073
-0.0002889484167098999
-0.0002902299165725708
-0.00029015541076660156
-0.00028890371322631836
-0.00028648972511291504
-0.00028286874294281006
-0.00027817487716674805
-0.00027248263359069824
-0.00026582181453704834
-0.00025838613510131836
-0.00025047361850738525
-0.00024232268333435059
-0.00023424625396728516
-0.00022645294666290283
-0.00021915137767791748
-0.0002124011516571045
-0.00020614266395568848
-0.0002002120018005371
-0.00019444525241851807
-0.00018855929374694824
-0.00018237531185150146
-0.00017555058002471924
-0.00016801059246063232
-0.0001595914363861084
-0.00015021860599517822
-0.0001399219036102295
-0.00012874603271484375
-0.00011688470840454102
-0.00010444223880767822
-9.188055992126465e-05
-7.924437522888184e-05
-6.7099928855896e-05
-5.550682544708252e-05
-4.48077917098999e-05
-3.5315752029418945e-05
-2.7120113372802734e-05
-2.0310282707214355e-05
-1.4886260032653809e-05
-1.068413257598877e-05
-7.659196853637695e-06