# vtk DataFile Version 3.0
2D PINN Solution
ASCII
DATASET STRUCTURED_GRID
DIMENSIONS 100 100 1
POINTS 10000 float
-1.0 -1.0 0.0
-0.9797979797979798 -1.0 0.0
-0.9595959595959596 -1.0 0.0
-0.9393939393939394 -1.0 0.0
-0.9191919191919192 -1.0 0.0
-0.898989898989899 -1.0 0.0
-0.8787878787878788 -1.0 0.0
-0.8585858585858586 -1.0 0.0
-0.8383838383838383 -1.0 0.0
-0.8181818181818181 -1.0 0.0
-0.797979797979798 -1.0 0.0
-0.7777777777777778 -1.0 0.0
-0.7575757575757576 -1.0 0.0
-0.7373737373737373 -1.0 0.0
-0.7171717171717171 -1.0 0.0
-0.696969696969697 -1.0 0.0
-0.6767676767676767 -1.0 0.0
-0.6565656565656566 -1.0 0.0
-0.6363636363636364 -1.0 0.0
-0.6161616161616161 -1.0 0.0
-0.5959595959595959 -1.0 0.0
-0.5757575757575757 -1.0 0.0
-0.5555555555555556 -1.0 0.0
-0.5353535353535352 -1.0 0.0
-0.5151515151515151 -1.0 0.0
-0.4949494949494949 -1.0 0.0
-0.4747474747474747 -1.0 0.0
-0.4545454545454545 -1.0 0.0
-0.43434343434343425 -1.0 0.0
-0.41414141414141414 -1.0 0.0
-0.3939393939393939 -1.0 0.0
-0.3737373737373737 -1.0 0.0
-0.3535353535353535 -1.0 0.0
-0.33333333333333326 -1.0 0.0
-0.31313131313131304 -1.0 0.0
-0.2929292929292928 -1.0 0.0
-0.2727272727272727 -1.0 0.0
-0.2525252525252525 -1.0 0.0
-0.23232323232323226 -1.0 0.0
-0.21212121212121204 -1.0 0.0
-0.19191919191919182 -1.0 0.0
-0.1717171717171716 -1.0 0.0
-0.1515151515151515 -1.0 0.0
-0.13131313131313127 -1.0 0.0
-0.11111111111111105 -1.0 0.0
-0.09090909090909083 -1.0 0.0
-0.07070707070707061 -1.0 0.0
-0.050505050505050386 -1.0 0.0
-0.030303030303030276 -1.0 0.0
-0.010101010101010055 -1.0 0.0
0.010101010101010166 -1.0 0.0
0.030303030303030498 -1.0 0.0
0.05050505050505061 -1.0 0.0
0.07070707070707072 -1.0 0.0
0.09090909090909105 -1.0 0.0
0.11111111111111116 -1.0 0.0
0.1313131313131315 -1.0 0.0
0.1515151515151516 -1.0 0.0
0.1717171717171717 -1.0 0.0
0.19191919191919204 -1.0 0.0
0.21212121212121215 -1.0 0.0
0.2323232323232325 -1.0 0.0
0.2525252525252526 -1.0 0.0
0.27272727272727293 -1.0 0.0
0.29292929292929304 -1.0 0.0
0.31313131313131315 -1.0 0.0
0.3333333333333335 -1.0 0.0
0.3535353535353536 -1.0 0.0
0.3737373737373739 -1.0 0.0
0.39393939393939403 -1.0 0.0
0.41414141414141437 -1.0 0.0
0.4343434343434345 -1.0 0.0
0.4545454545454546 -1.0 0.0
0.4747474747474749 -1.0 0.0
0.49494949494949503 -1.0 0.0
0.5151515151515154 -1.0 0.0
0.5353535353535355 -1.0 0.0
0.5555555555555556 -1.0 0.0
0.5757575757575759 -1.0 0.0
0.595959595959596 -1.0 0.0
0.6161616161616164 -1.0 0.0
0.6363636363636365 -1.0 0.0
0.6565656565656568 -1.0 0.0
0.6767676767676769 -1.0 0.0
0.696969696969697 -1.0 0.0
0.7171717171717173 -1.0 0.0
0.7373737373737375 -1.0 0.0
0.7575757575757578 -1.0 0.0
0.7777777777777779 -1.0 0.0
0.7979797979797982 -1.0 0.0
0.8181818181818183 -1.0 0.0
0.8383838383838385 -1.0 0.0
0.8585858585858588 -1.0 0.0
0.8787878787878789 -1.0 0.0
0.8989898989898992 -1.0 0.0
0.9191919191919193 -1.0 0.0
0.9393939393939394 -1.0 0.0
0.9595959595959598 -1.0 0.0
0.9797979797979799 -1.0 0.0
1.0 -1.0 0.0
-1.0 -0.9797979797979798 0.0
-0.9797979797979798 -0.9797979797979798 0.0
-0.9595959595959596 -0.9797979797979798 0.0
-0.9393939393939394 -0.9797979797979798 0.0
-0.9191919191919192 -0.9797979797979798 0.0
-0.898989898989899 -0.9797979797979798 0.0
-0.8787878787878788 -0.9797979797979798 0.0
-0.8585858585858586 -0.9797979797979798 0.0
-0.8383838383838383 -0.9797979797979798 0.0
-0.8181818181818181 -0.9797979797979798 0.0
-0.797979797979798 -0.9797979797979798 0.0
-0.7777777777777778 -0.9797979797979798 0.0
-0.7575757575757576 -0.9797979797979798 0.0
-0.7373737373737373 -0.9797979797979798 0.0
-0.7171717171717171 -0.9797979797979798 0.0
-0.696969696969697 -0.9797979797979798 0.0
-0.6767676767676767 -0.9797979797979798 0.0
-0.6565656565656566 -0.9797979797979798 0.0
-0.6363636363636364 -0.9797979797979798 0.0
-0.6161616161616161 -0.9797979797979798 0.0
-0.5959595959595959 -0.9797979797979798 0.0
-0.5757575757575757 -0.9797979797979798 0.0
-0.5555555555555556 -0.9797979797979798 0.0
-0.5353535353535352 -0.9797979797979798 0.0
-0.5151515151515151 -0.9797979797979798 0.0
-0.4949494949494949 -0.9797979797979798 0.0
-0.4747474747474747 -0.9797979797979798 0.0
-0.4545454545454545 -0.9797979797979798 0.0
-0.43434343434343425 -0.9797979797979798 0.0
-0.41414141414141414 -0.9797979797979798 0.0
-0.3939393939393939 -0.9797979797979798 0.0
-0.3737373737373737 -0.9797979797979798 0.0
-0.3535353535353535 -0.9797979797979798 0.0
-0.33333333333333326 -0.9797979797979798 0.0
-0.31313131313131304 -0.9797979797979798 0.0
-0.2929292929292928 -0.9797979797979798 0.0
-0.2727272727272727 -0.9797979797979798 0.0
-0.2525252525252525 -0.9797979797979798 0.0
-0.23232323232323226 -0.9797979797979798 0.0
-0.21212121212121204 -0.9797979797979798 0.0
-0.19191919191919182 -0.9797979797979798 0.0
-0.1717171717171716 -0.9797979797979798 0.0
-0.1515151515151515 -0.9797979797979798 0.0
-0.13131313131313127 -0.9797979797979798 0.0
-0.11111111111111105 -0.9797979797979798 0.0
-0.09090909090909083 -0.9797979797979798 0.0
-0.07070707070707061 -0.9797979797979798 0.0
-0.050505050505050386 -0.9797979797979798 0.0
-0.030303030303030276 -0.9797979797979798 0.0
-0.010101010101010055 -0.9797979797979798 0.0
0.010101010101010166 -0.9797979797979798 0.0
0.030303030303030498 -0.9797979797979798 0.0
0.05050505050505061 -0.9797979797979798 0.0
0.07070707070707072 -0.9797979797979798 0.0
0.09090909090909105 -0.9797979797979798 0.0
0.11111111111111116 -0.9797979797979798 0.0
0.1313131313131315 -0.9797979797979798 0.0
0.1515151515151516 -0.9797979797979798 0.0
0.1717171717171717 -0.9797979797979798 0.0
0.19191919191919204 -0.9797979797979798 0.0
0.21212121212121215 -0.9797979797979798 0.0
0.2323232323232325 -0.9797979797979798 0.0
0.2525252525252526 -0.9797979797979798 0.0
0.27272727272727293 -0.9797979797979798 0.0
0.29292929292929304 -0.9797979797979798 0.0
0.31313131313131315 -0.9797979797979798 0.0
0.3333333333333335 -0.9797979797979798 0.0
0.3535353535353536 -0.9797979797979798 0.0
0.3737373737373739 -0.9797979797979798 0.0
0.39393939393939403 -0.9797979797979798 0.0
0.41414141414141437 -0.9797979797979798 0.0
0.4343434343434345 -0.9797979797979798 0.0
0.4545454545454546 -0.9797979797979798 0.0
0.4747474747474749 -0.9797979797979798 0.0
0.49494949494949503 -0.9797979797979798 0.0
0.5151515151515154 -0.9797979797979798 0.0
0.5353535353535355 -0.9797979797979798 0.0
0.5555555555555556 -0.9797979797979798 0.0
0.5757575757575759 -0.9797979797979798 0.0
0.595959595959596 -0.9797979797979798 0.0
0.6161616161616164 -0.9797979797979798 0.0
0.6363636363636365 -0.9797979797979798 0.0
0.6565656565656568 -0.9797979797979798 0.0
0.6767676767676769 -0.9797979797979798 0.0
0.696969696969697 -0.9797979797979798 0.0
0.7171717171717173 -0.9797979797979798 0.0
0.7373737373737375 -0.9797979797979798 0.0
0.7575757575757578 -0.9797979797979798 0.0
0.7777777777777779 -0.9797979797979798 0.0
0.7979797979797982 -0.9797979797979798 0.0
0.8181818181818183 -0.9797979797979798 0.0
0.8383838383838385 -0.9797979797979798 0.0
0.8585858585858588 -0.9797979797979798 0.0
0.8787878787878789 -0.9797979797979798 0.0
0.8989898989898992 -0.9797979797979798 0.0
0.9191919191919193 -0.9797979797979798 0.0
0.9393939393939394 -0.9797979797979798 0.0
0.9595959595959598 -0.9797979797979798 0.0
0.9797979797979799 -0.9797979797979798 0.0
1.0 -0.9797979797979798 0.0
-1.0 -0.9595959595959596 0.0
-0.9797979797979798 -0.9595959595959596 0.0
-0.9595959595959596 -0.9595959595959596 0.0
-0.9393939393939394 -0.9595959595959596 0.0
-0.9191919191919192 -0.9595959595959596 0.0
-0.898989898989899 -0.9595959595959596 0.0
-0.8787878787878788 -0.9595959595959596 0.0
-0.8585858585858586 -0.9595959595959596 0.0
-0.8383838383838383 -0.9595959595959596 0.0
-0.8181818181818181 -0.9595959595959596 0.0
-0.797979797979798 -0.9595959595959596 0.0
-0.7777777777777778 -0.9595959595959596 0.0
-0.7575757575757576 -0.9595959595959596 0.0
-0.7373737373737373 -0.9595959595959596 0.0
-0.7171717171717171 -0.9595959595959596 0.0
-0.696969696969697 -0.9595959595959596 0.0
-0.6767676767676767 -0.9595959595959596 0.0
-0.6565656565656566 -0.9595959595959596 0.0
-0.6363636363636364 -0.9595959595959596 0.0
-0.6161616161616161 -0.9595959595959596 0.0
-0.5959595959595959 -0.9595959595959596 0.0
-0.5757575757575757 -0.9595959595959596 0.0
-0.5555555555555556 -0.9595959595959596 0.0
-0.5353535353535352 -0.9595959595959596 0.0
-0.5151515151515151 -0.9595959595959596 0.0
-0.4949494949494949 -0.9595959595959596 0.0
-0.4747474747474747 -0.9595959595959596 0.0
-0.4545454545454545 -0.9595959595959596 0.0
-0.43434343434343425 -0.9595959595959596 0.0
-0.41414141414141414 -0.9595959595959596 0.0
-0.3939393939393939 -0.9595959595959596 0.0
-0.3737373737373737 -0.9595959595959596 0.0
-0.3535353535353535 -0.9595959595959596 0.0
-0.33333333333333326 -0.9595959595959596 0.0
-0.31313131313131304 -0.9595959595959596 0.0
-0.2929292929292928 -0.9595959595959596 0.0
-0.2727272727272727 -0.9595959595959596 0.0
-0.2525252525252525 -0.9595959595959596 0.0
-0.23232323232323226 -0.9595959595959596 0.0
-0.21212121212121204 -0.9595959595959596 0.0
-0.19191919191919182 -0.9595959595959596 0.0
-0.1717171717171716 -0.9595959595959596 0.0
-0.1515151515151515 -0.9595959595959596 0.0
-0.13131313131313127 -0.9595959595959596 0.0
-0.11111111111111105 -0.9595959595959596 0.0
-0.09090909090909083 -0.9595959595959596 0.0
-0.07070707070707061 -0.9595959595959596 0.0
-0.050505050505050386 -0.9595959595959596 0.0
-0.030303030303030276 -0.9595959595959596 0.0
-0.010101010101010055 -0.9595959595959596 0.0
0.010101010101010166 -0.9595959595959596 0.0
0.030303030303030498 -0.9595959595959596 0.0
0.05050505050505061 -0.9595959595959596 0.0
0.07070707070707072 -0.9595959595959596 0.0
0.09090909090909105 -0.9595959595959596 0.0
0.11111111111111116 -0.9595959595959596 0.0
0.1313131313131315 -0.9595959595959596 0.0
0.1515151515151516 -0.9595959595959596 0.0
0.1717171717171717 -0.9595959595959596 0.0
0.19191919191919204 -0.9595959595959596 0.0
0.21212121212121215 -0.9595959595959596 0.0
[...]
POINT_DATA 10000
SCALARS u float 1
LOOKUP_TABLE default
-0.0001262575387954712
-0.0001379251480102539
-0.00014927983283996582
-0.00016011297702789307
-0.00017048418521881104
-0.0001801997423171997
-0.00018924474716186523
-0.00019757449626922607
-0.00020521879196166992
-0.00021216273307800293
-0.0002183467149734497
-0.00022399425506591797
-0.00022906064987182617
-0.00023373961448669434
-0.000238075852394104
-0.0002422034740447998
-0.0002461373805999756
-0.00024996697902679443
-0.0002536475658416748
-0.0002572387456893921
-0.0002605020999908447
-0.0002635270357131958
-0.0002660602331161499
-0.0002681612968444824
-0.00026960670948028564
-0.00027048587799072266
-0.00027082860469818115
-0.0002705901861190796
-0.00026988983154296875
-0.00026880204677581787
-0.0002673417329788208
-0.00026556849479675293
-0.00026357173919677734
-0.00026126205921173096
-0.0002585500478744507
-0.00025548040866851807
-0.00025197863578796387
-0.000247955322265625
-0.00024327635765075684
-0.0002380162477493286
-0.00023220479488372803
-0.000225752592086792
-0.00021883845329284668
-0.0002113431692123413
-0.00020359456539154053
-0.00019568204879760742
-0.00018772482872009277
-0.00017990171909332275
-0.0001723766326904297
-0.0001653432846069336
-0.00015886127948760986
-0.0001531839370727539
-0.00014819204807281494
-0.00014400482177734375
-0.00014068186283111572
-0.0001382976770401001
-0.00013665854930877686
-0.00013583898544311523
-0.000135764479637146
-0.00013640522956848145
-0.0001376122236251831
-0.00013937056064605713
-0.00014156103134155273
-0.0001439899206161499
-0.0001466125249862671
-0.00014927983283996582
-0.00015188753604888916
-0.00015436112880706787
-0.00015661120414733887
-0.0001585632562637329
-0.00016021728515625
-0.0001615285873413086
-0.00016260147094726562
-0.00016333162784576416
-0.00016379356384277344
-0.00016391277313232422
-0.0001640021800994873
-0.0001636892557144165
-0.0001633167266845703
-0.0001627206802368164
-0.00016197562217712402
-0.0001611560583114624
-0.00016030669212341309
-0.00015947222709655762
-0.00015869736671447754
-0.0001580566167831421
-0.0001576244831085205
-0.00015749037265777588
-0.00015781819820404053
-0.00015851855278015137
-0.00015971064567565918
-0.0001615285873413086
-0.00016386806964874268
-0.00016677379608154297
-0.000170096755027771
-0.0001738220453262329
-0.00017791986465454102
-0.0001821070909500122
-0.00018624961376190186
-0.00019025802612304688
-0.00013418495655059814
-0.000145643949508667
-0.00015652179718017578
-0.00016677379608154297
-0.000176355242729187
-0.00018525123596191406
-0.00019340217113494873
-0.00020080804824829102
-0.0002074986696243286
-0.00021347403526306152
-0.0002187788486480713
-0.00022348761558532715
-0.00022776424884796143
-0.00023162364959716797
-0.0002352893352508545
-0.0002387911081314087
-0.00024227797985076904
-0.0002457946538925171
-0.0002493560314178467
-0.0002528727054595947
-0.0002563893795013428
-0.0002597123384475708
-0.00026269257068634033
-0.00026535987854003906
-0.0002675354480743408
-0.00026917457580566406
-0.00027026236057281494
-0.00027076900005340576
-0.0002706944942474365
-0.00027011334896087646
-0.0002689957618713379
-0.00026747584342956543
-0.0002655237913131714
-0.0002630501985549927
-0.0002601444721221924
-0.0002566128969192505
-0.0002525895833969116
-0.0002479255199432373
-0.0002426058053970337
-0.00023666024208068848
-0.00023005902767181396
-0.0002228468656539917
-0.00021503865718841553
-0.00020688772201538086
-0.00019843876361846924
-0.0001897960901260376
-0.00018115341663360596
-0.00017279386520385742
-0.000164717435836792
-0.00015719234943389893
-0.0001503080129623413
-0.00014418363571166992
-0.00013890862464904785
-0.0001344531774520874
-0.00013093650341033936
-0.00012832880020141602
-0.00012658536434173584
-0.00012576580047607422
-0.00012573599815368652
-0.0001264810562133789
-0.00012788176536560059
-0.00012981891632080078
-0.00013224780559539795
-0.00013494491577148438
-0.00013796985149383545
-0.00014092028141021729
-0.0001439303159713745
-0.00014671683311462402
-0.00014927983283996582
-0.00015148520469665527
-0.00015339255332946777
-0.00015485286712646484
-0.00015598535537719727
-0.00015676021575927734
-0.00015719234943389893
-0.00015735626220703125
-0.00015725195407867432
-0.00015692412853240967
-0.00015635788440704346
-0.00015556812286376953
-0.00015470385551452637
-0.00015366077423095703
-0.0001525282859802246
-0.00015132129192352295
-0.00015014410018920898
-0.00014913082122802734
-0.00014829635620117188
-0.00014770030975341797
-0.0001475214958190918
-0.00014784932136535645
-0.00014866888523101807
-0.00015017390251159668
-0.0001523345708847046
-0.00015513598918914795
-0.00015857815742492676
-0.00016266107559204102
-0.0001671910285949707
-0.00017198920249938965
-0.0001770108938217163
-0.00018204748630523682
-0.00014166533946990967
-0.00015270709991455078
-0.00016295909881591797
-0.00017246603965759277
-0.0001812577247619629
-0.00018925964832305908
-0.00019657611846923828
-0.00020301342010498047
-0.0002087801694869995
-0.0002139359712600708
-0.0002184063196182251
-0.00022229552268981934
-0.000225752592086792
-0.00022897124290466309
-0.00023202598094940186
-0.00023509562015533447
-0.00023822486400604248
-0.00024153292179107666
-0.00024500489234924316
-0.00024856626987457275
-0.0002523064613342285
-0.00025588274002075195
-0.00025944411754608154
-0.00026269257068634033
-0.0002655237913131714
-0.0002678036689758301
-0.00026957690715789795
-0.00027073919773101807
-0.00027123093605041504
-0.00027105212211608887
-0.0002703666687011719
-0.0002689957618713379
-0.0002669990062713623
-0.0002643764019012451
-0.00026120245456695557
-0.00025731325149536133
-0.0002527683973312378
-0.00024753808975219727
-0.0002415478229522705
-0.00023493170738220215
-0.0002276301383972168
-0.0002197176218032837
-0.00021126866340637207
-0.00020238757133483887
-0.0001932680606842041
-0.00018399953842163086
-0.0001748502254486084
-0.00016582012176513672
-0.00015722215175628662
-0.00014927983283996582
-0.00014197826385498047
-0.00013552606105804443
-0.00012987852096557617
-0.0001252293586730957
-0.00012148916721343994
-0.00011870265007019043
-0.00011688470840454102
-0.00011596083641052246
-0.00011590123176574707
-0.00011667609214782715
-0.00011818110942840576
-0.00012026727199554443
-0.00012290477752685547
-0.00012597441673278809
-0.00012923777103424072
-0.0001326054334640503
-0.00013592839241027832
-0.00013910233974456787
-0.000142022967338562
-0.00014457106590270996
-0.00014667212963104248
-0.00014835596084594727
-0.00014960765838623047
-0.00015044212341308594
-0.00015084445476531982
-0.000151023268699646
-0.00015079975128173828
-0.0001503974199295044
-0.0001497119665145874
-0.00014878809452056885
-0.00014775991439819336
-0.00014650821685791016
-0.00014507770538330078
-0.0001436173915863037
-0.0001421719789505005
-0.00014069676399230957
-0.00013944506645202637
-0.00013838708400726318
-0.0001377016305923462
-0.00013750791549682617
-0.00013786554336547852
-0.00013890862464904785
-0.00014072656631469727
-0.00014331936836242676
-0.00014662742614746094
-0.00015076994895935059
-0.00015555322170257568
-0.000160902738571167
-0.0001665949821472168
-0.00017258524894714355
-0.0001484602689743042
-0.00015895068645477295
-0.000168532133102417
-0.00017730891704559326
-0.00018523633480072021
-0.00019237399101257324
-0.00019884109497070312
-0.000204429030418396
-0.00020939111709594727
-0.0002136826515197754
-0.0002173781394958496
-0.00022055208683013916
-0.00022339820861816406
-0.0002259761095046997
-0.00022855401039123535
-0.00023120641708374023
-0.00023411214351654053
-0.00023721158504486084
-0.00024065375328063965
-0.0002443939447402954
-0.00024831295013427734
-0.0002523362636566162
-0.00025628507137298584
-0.00026009976863861084
-0.0002635270357131958
-0.0002664923667907715
-0.00026883184909820557
-0.00027057528495788574
-0.00027157366275787354
-0.00027179718017578125
-0.0002713501453399658
-0.0002700686454772949
-0.0002680569887161255
-0.0002653151750564575
-0.00026182830333709717
-0.00025750696659088135
-0.0002525746822357178
-0.00024674832820892334
-0.00024025142192840576
-0.0002329796552658081
-0.00022502243518829346
-0.00021648406982421875
-0.00020740926265716553
-0.00019791722297668457
-0.0001881718635559082
-0.00017836689949035645
-0.0001685619354248047
-0.00015915930271148682
-0.0001500844955444336
-0.0001417100429534912
-0.00013405084609985352
-0.00012725591659545898
-0.0001214146614074707
-0.00011640787124633789
-0.00011247396469116211
-0.00010956823825836182
-0.00010752677917480469
-0.00010648369789123535
-0.00010637938976287842
-0.0001070946455001831
-0.00010859966278076172
-0.00011083483695983887
-0.00011366605758666992
-0.00011692941188812256
-0.0001204460859298706
-0.00012421607971191406
-0.00012791156768798828
-0.00013141334056854248
-0.0001347362995147705
-0.00013755261898040771
-0.00014001131057739258
-0.00014191865921020508
-0.00014331936836242676
-0.0001443028450012207
-0.00014476478099822998
-0.0001449286937713623
-0.0001447051763534546
-0.00014418363571166992
-0.0001433342695236206
-0.00014230608940124512
-0.0001411139965057373
-0.00013965368270874023
-0.00013808906078338623
-0.00013643503189086914
-0.00013461709022521973
-0.0001328587532043457
-0.00013114511966705322
-0.00012968480587005615
-0.00012843310832977295
-0.00012768805027008057
-0.0001275092363357544
-0.00012803077697753906
-0.0001292973756790161
-0.00013148784637451172
-0.00013457238674163818
-0.00013859570026397705
-0.0001434534788131714
-0.0001491159200668335
-0.0001553744077682495
-0.00016199052333831787
-0.00015458464622497559
-0.00016438961029052734
-0.0001733154058456421
-0.00018121302127838135
-0.00018838047981262207
-0.00019478797912597656
-0.00020036101341247559
-0.00020518898963928223
-0.00020939111709594727
-0.00021295249462127686
-0.00021588802337646484
-0.00021842122077941895
-0.0002206861972808838
-0.00022277235984802246
-0.00022491812705993652
-0.0002272576093673706
-0.0002299100160598755
-0.00023302435874938965
-0.00023642182350158691
-0.00024034082889556885
-0.0002445429563522339
-0.0002489238977432251
-0.0002533644437789917
-0.00025770068168640137
-0.00026163458824157715
-0.00026519596576690674
-0.0002681463956832886
-0.0002703815698623657
-0.00027173757553100586
-0.00027236342430114746
-0.0002720355987548828
-0.0002708733081817627
-0.0002688169479370117
-0.00026588141918182373
-0.00026206672191619873
-0.0002574622631072998
-0.0002520531415939331
-0.00024577975273132324
-0.00023871660232543945
-0.00023087859153747559
-0.00022238492965698242
-0.00021320581436157227
-0.00020362436771392822
-0.00019353628158569336
-0.00018325448036193848
-0.00017289817333221436
-0.00016267597675323486
-0.00015281140804290771
-0.000143393874168396
-0.00013464689254760742
-0.00012665987014770508
-0.0001195669174194336
-0.00011345744132995605
-0.00010824203491210938
-0.00010408461093902588
-0.00010089576244354248
-9.867548942565918e-05
-9.748339653015137e-05
-9.721517562866211e-05
-9.784102439880371e-05
-9.930133819580078e-05
-0.00010153651237487793
-0.00010444223880767822
-0.00010780990123748779
-0.00011166930198669434
-0.00011570751667022705
-0.00011977553367614746
-0.0001236945390701294
-0.00012734532356262207
-0.00013056397438049316
-0.00013333559036254883
-0.0001354515552520752
-0.00013715028762817383
-0.0001382380723953247
-0.00013880431652069092
-0.00013893842697143555
-0.0001386702060699463
-0.00013813376426696777
-0.00013722479343414307
-0.0001361072063446045
-0.00013475120067596436
-0.00013321638107299805
-0.00013153254985809326
-0.00012955069541931152
-0.00012759864330291748
-0.00012552738189697266
-0.00012348592281341553
-0.00012157857418060303
-0.0001198798418045044
-0.0001185387372970581
-0.00011774897575378418
-0.00011764466762542725
-0.00011835992336273193
-0.00012002885341644287
-0.0001226663589477539
-0.00012634694576263428
-0.00013108551502227783
-0.00013686716556549072
-0.00014340877532958984
-0.0001506209373474121
-0.00015997886657714844
-0.0001690983772277832
-0.00017718970775604248
-0.0001844167709350586
-0.0001907944679260254
-0.00019632279872894287
-0.00020119547843933105
-0.0002053380012512207
-0.00020885467529296875
-0.00021179020404815674
-0.00021414458751678467
-0.00021614134311676025
-0.00021789968013763428
-0.00021950900554656982
-0.0002213120460510254
-0.0002234429121017456
-0.00022591650485992432
-0.0002289414405822754
-0.00023250281810760498
-0.00023655593395233154
-0.00024102628231048584
-0.0002457648515701294
-0.00025056302547454834
-0.0002554208040237427
-0.00025998055934906006
-0.0002640187740325928
-0.00026741623878479004
-0.00027008354663848877
-0.0002718418836593628
-0.00027267634868621826
-0.0002724677324295044
-0.0002713501453399658
-0.0002692192792892456
-0.000266149640083313
-0.00026206672191619873
-0.00025710463523864746
-0.0002512633800506592
-0.00024455785751342773
-0.00023695826530456543
-0.00022867321968078613
-0.0002196282148361206
-0.00021004676818847656
-0.00019988417625427246
-0.00018934905529022217
-0.00017859041690826416
-0.0001677870750427246
-0.00015713274478912354
-0.0001468956470489502
-0.00013718008995056152
-0.00012812018394470215
-0.0001198500394821167
-0.00011248886585235596
-0.00010614097118377686
-0.00010070204734802246
-9.63360071182251e-05
-9.292364120483398e-05
-9.050965309143066e-05
-8.89897346496582e-05
-8.851289749145508e-05
-8.893013000488281e-05
-9.02414321899414e-05
-9.240210056304932e-05
-9.524822235107422e-05
-9.874999523162842e-05
-0.0001026839017868042
-0.00010699033737182617
-0.00011138617992401123
-0.00011563301086425781
-0.00011970102787017822
-0.00012330710887908936
-0.00012643635272979736
-0.00012893974781036377
-0.00013083219528198242
-0.0001321732997894287
-0.0001328587532043457
-0.00013309717178344727
-0.000132828950881958
-0.0001322627067565918
-0.0001312941312789917
-0.00013014674186706543
-0.0001287013292312622
-0.00012704730033874512
-0.000125199556350708
-0.00012317299842834473
-0.00012098252773284912
-0.00011876225471496582
-0.00011642277240753174
-0.0001140981912612915
-0.00011205673217773438
-0.00011023879051208496
-0.00010885298252105713
-0.00010816752910614014
-0.00010819733142852783
-0.00010922551155090332
-0.00011129677295684814
-0.00011451542377471924
-0.00011894106864929199
-0.0001245737075805664
-0.0001312047243118286
-0.00013877451419830322
-0.00016455352306365967
-0.00017289817333221436
-0.00018027424812316895
-0.00018680095672607422
-0.00019244849681854248
-0.00019735097885131836
-0.00020156800746917725
-0.00020509958267211914
-0.00020806491374969482
-0.00021041929721832275
-0.00021229684352874756
-0.00021378695964813232
-0.0002151578664779663
-0.00021637976169586182
-0.00021791458129882812
-0.00021980702877044678
-0.0002221912145614624
-0.00022518634796142578
-0.00022876262664794922
-0.0002330690622329712
-0.00023774802684783936
-0.00024284422397613525
-0.00024808943271636963
-0.0002533644437789917
-0.00025835633277893066
-0.0002628415822982788
-0.00026670098304748535
-0.00026977062225341797
-0.0002717822790145874
-0.0002728402614593506
-0.00027276575565338135
-0.00027160346508026123
-0.00026938319206237793
-0.0002660900354385376
-0.00026179850101470947
-0.00025647878646850586
-0.000250205397605896
-0.00024306774139404297
-0.00023506581783294678
-0.0002263486385345459
-0.00021685659885406494
-0.00020673871040344238
-0.00019621849060058594
-0.00018525123596191406
-0.00017409026622772217
-0.00016294419765472412
-0.00015197694301605225
-0.00014141201972961426
-0.00013142824172973633
-0.00012215971946716309
-0.00011368095874786377
-0.00010608136653900146
-9.955465793609619e-05
-9.392201900482178e-05
-8.931756019592285e-05
-8.565187454223633e-05
-8.29845666885376e-05
-8.115172386169434e-05
-8.034706115722656e-05
-8.046627044677734e-05
-8.146464824676514e-05
-8.340179920196533e-05
-8.608400821685791e-05
-8.951127529144287e-05
-9.350478649139404e-05
-9.794533252716064e-05
-0.00010253489017486572
-0.00010719895362854004
-0.00011163949966430664
-0.00011563301086425781
-0.00011920928955078125
-0.0001221001148223877
-0.00012436509132385254
-0.0001259148120880127
-0.00012683868408203125
-0.0001271963119506836
-0.0001270771026611328
-0.0001264810562133789
-0.00012549757957458496
-0.00012424588203430176
-0.00012277066707611084
-0.00012101233005523682
-0.00011909008026123047
-0.0001170039176940918
-0.00011479854583740234
-0.00011235475540161133
-0.00010989606380462646
-0.00010737776756286621
-0.00010491907596588135
-0.00010272860527038574
-0.00010086596012115479
-9.956955909729004e-05
-9.898841381072998e-05
-9.928643703460693e-05
-0.00010070204734802246
-0.0001033097505569458
-0.00010728836059570312
-0.00011248886585235596
-0.00011903047561645508
-0.0001268237829208374
-0.00016839802265167236
-0.00017602741718292236
-0.00018271803855895996
-0.0001885443925857544
-0.00019356608390808105
-0.00019790232181549072
-0.0002015233039855957
-0.00020459294319152832
-0.0002070218324661255
-0.00020894408226013184
-0.0002104640007019043
-0.00021155178546905518
-0.00021247565746307373
-0.00021354854106903076
-0.00021478533744812012
-0.00021648406982421875
-0.0002187490463256836
-0.00022174417972564697
-0.0002254396677017212
-0.00022980570793151855
-0.00023481249809265137
-0.00024022161960601807
-0.0002458542585372925
-0.00025150179862976074
-0.0002568662166595459
-0.000261843204498291
-0.0002660006284713745
-0.0002693384885787964
-0.0002716630697250366
-0.00027282536029815674
-0.0002728700637817383
-0.00027167797088623047
-0.00026935338973999023
-0.0002658069133758545
-0.0002612173557281494
-0.00025559961795806885
-0.00024896860122680664
-0.00024142861366271973
-0.00023308396339416504
-0.00022393465042114258
-0.00021404027938842773
-0.00020354986190795898
-0.0001926124095916748
-0.00018136203289031982
-0.00016984343528747559
-0.00015842914581298828
-0.00014719367027282715
-0.00013640522956848145
-0.00012624263763427734
-0.00011676549911499023
-0.00010813772678375244
-0.00010044872760772705
-9.375810623168945e-05
-8.797645568847656e-05
-8.313357830047607e-05
-7.915496826171875e-05
-7.615983486175537e-05
-7.399916648864746e-05
-7.27921724319458e-05
-7.246434688568115e-05
-7.306039333343506e-05
-7.458031177520752e-05
-7.700920104980469e-05
-8.016824722290039e-05
-8.408725261688232e-05
-8.848309516906738e-05
-9.331107139587402e-05
-9.813904762268066e-05
-0.00010293722152709961
-0.0001074373722076416
-0.00011140108108520508
-0.00011476874351501465
-0.00011740624904632568
-0.00011935830116271973
-0.00012056529521942139
-0.00012111663818359375
-0.00012108683586120605
-0.00012058019638061523
-0.00011967122554779053
-0.00011838972568511963
-0.00011688470840454102
-0.00011515617370605469
-0.00011326372623443604
-0.00011113286018371582
-0.00010877847671508789
-0.00010634958744049072
-0.00010383129119873047
-0.00010114908218383789
-9.854137897491455e-05
-9.609758853912354e-05
-9.3802809715271e-05
-9.196996688842773e-05
-9.077787399291992e-05
-9.043514728546143e-05
-9.113550186157227e-05
-9.301304817199707e-05
-9.63360071182251e-05
-0.00010113418102264404
-0.00010734796524047852
-0.00011494755744934082
-0.00017154216766357422
-0.00017848610877990723
-0.00018452107906341553
-0.0001897066831588745
-0.00019416213035583496
-0.0001980513334274292
-0.0002012401819229126
-0.00020389258861541748
-0.0002059340476989746
-0.00020748376846313477
-0.00020860135555267334
-0.00020945072174072266
-0.0002101212739944458
-0.00021091103553771973
-0.0002119988203048706
-0.00021354854106903076
-0.00021575391292572021
-0.00021870434284210205
-0.0002225041389465332
-0.00022704899311065674
-0.00023218989372253418
-0.00023791193962097168
-0.00024387240409851074
-0.0002498626708984375
-0.0002556145191192627
-0.0002608448266983032
-0.0002654343843460083
-0.00026901066303253174
-0.0002714395523071289
-0.00027276575565338135
-0.0002728104591369629
-0.00027154386043548584
-0.0002689957618713379
-0.0002652853727340698
-0.00026041269302368164
-0.00025443732738494873
-0.0002474933862686157
-0.000239640474319458
-0.00023090839385986328
-0.00022134184837341309
-0.00021117925643920898
-0.00020037591457366943
-0.00018909573554992676
-0.00017756223678588867