# vtk DataFile Version 3.0
2D PINN Solution
ASCII
DATASET STRUCTURED_GRID
DIMENSIONS 100 100 1
POINTS 10000 float
-1.0 -1.0 0.0
-0.9797979797979798 -1.0 0.0
-0.9595959595959596 -1.0 0.0
-0.9393939393939394 -1.0 0.0
-0.9191919191919192 -1.0 0.0
-0.898989898989899 -1.0 0.0
-0.8787878787878788 -1.0 0.0
-0.8585858585858586 -1.0 0.0
-0.8383838383838383 -1.0 0.0
-0.8181818181818181 -1.0 0.0
-0.797979797979798 -1.0 0.0
-0.7777777777777778 -1.0 0.0
-0.7575757575757576 -1.0 0.0
-0.7373737373737373 -1.0 0.0
-0.7171717171717171 -1.0 0.0
-0.696969696969697 -1.0 0.0
-0.6767676767676767 -1.0 0.0
-0.6565656565656566 -1.0 0.0
-0.6363636363636364 -1.0 0.0
-0.6161616161616161 -1.0 0.0
-0.5959595959595959 -1.0 0.0
-0.5757575757575757 -1.0 0.0
-0.5555555555555556 -1.0 0.0
-0.5353535353535352 -1.0 0.0
-0.5151515151515151 -1.0 0.0
-0.4949494949494949 -1.0 0.0
-0.4747474747474747 -1.0 0.0
-0.4545454545454545 -1.0 0.0
-0.43434343434343425 -1.0 0.0
-0.41414141414141414 -1.0 0.0
-0.3939393939393939 -1.0 0.0
-0.3737373737373737 -1.0 0.0
-0.3535353535353535 -1.0 0.0
-0.33333333333333326 -1.0 0.0
-0.31313131313131304 -1.0 0.0
-0.2929292929292928 -1.0 0.0
-0.2727272727272727 -1.0 0.0
-0.2525252525252525 -1.0 0.0
-0.23232323232323226 -1.0 0.0
-0.21212121212121204 -1.0 0.0
-0.19191919191919182 -1.0 0.0
-0.1717171717171716 -1.0 0.0
-0.1515151515151515 -1.0 0.0
-0.13131313131313127 -1.0 0.0
-0.11111111111111105 -1.0 0.0
-0.09090909090909083 -1.0 0.0
-0.07070707070707061 -1.0 0.0
-0.050505050505050386 -1.0 0.0
-0.030303030303030276 -1.0 0.0
-0.010101010101010055 -1.0 0.0
0.010101010101010166 -1.0 0.0
0.030303030303030498 -1.0 0.0
0.05050505050505061 -1.0 0.0
0.07070707070707072 -1.0 0.0
0.09090909090909105 -1.0 0.0
0.11111111111111116 -1.0 0.0
0.1313131313131315 -1.0 0.0
0.1515151515151516 -1.0 0.0
0.1717171717171717 -1.0 0.0
0.19191919191919204 -1.0 0.0
0.21212121212121215 -1.0 0.0
0.2323232323232325 -1.0 0.0
0.2525252525252526 -1.0 0.0
0.27272727272727293 -1.0 0.0
0.29292929292929304 -1.0 0.0
0.31313131313131315 -1.0 0.0
0.3333333333333335 -1.0 0.0
0.3535353535353536 -1.0 0.0
0.3737373737373739 -1.0 0.0
0.39393939393939403 -1.0 0.0
0.41414141414141437 -1.0 0.0
0.4343434343434345 -1.0 0.0
0.4545454545454546 -1.0 0.0
0.4747474747474749 -1.0 0.0
0.49494949494949503 -1.0 0.0
0.5151515151515154 -1.0 0.0
0.5353535353535355 -1.0 0.0
0.5555555555555556 -1.0 0.0
0.5757575757575759 -1.0 0.0
0.595959595959596 -1.0 0.0
0.6161616161616164 -1.0 0.0
0.6363636363636365 -1.0 0.0
0.6565656565656568 -1.0 0.0
0.6767676767676769 -1.0 0.0
0.696969696969697 -1.0 0.0
0.7171717171717173 -1.0 0.0
0.7373737373737375 -1.0 0.0
0.7575757575757578 -1.0 0.0
0.7777777777777779 -1.0 0.0
0.7979797979797982 -1.0 0.0
0.8181818181818183 -1.0 0.0
0.8383838383838385 -1.0 0.0
0.8585858585858588 -1.0 0.0
0.8787878787878789 -1.0 0.0
0.8989898989898992 -1.0 0.0
0.9191919191919193 -1.0 0.0
0.9393939393939394 -1.0 0.0
0.9595959595959598 -1.0 0.0
0.9797979797979799 -1.0 0.0
1.0 -1.0 0.0
-1.0 -0.9797979797979798 0.0
-0.9797979797979798 -0.9797979797979798 0.0
-0.9595959595959596 -0.9797979797979798 0.0
-0.9393939393939394 -0.9797979797979798 0.0
-0.9191919191919192 -0.9797979797979798 0.0
-0.898989898989899 -0.9797979797979798 0.0
-0.8787878787878788 -0.9797979797979798 0.0
-0.8585858585858586 -0.9797979797979798 0.0
-0.8383838383838383 -0.9797979797979798 0.0
-0.8181818181818181 -0.9797979797979798 0.0
-0.797979797979798 -0.9797979797979798 0.0
-0.7777777777777778 -0.9797979797979798 0.0
-0.7575757575757576 -0.9797979797979798 0.0
-0.7373737373737373 -0.9797979797979798 0.0
-0.7171717171717171 -0.9797979797979798 0.0
-0.696969696969697 -0.9797979797979798 0.0
-0.6767676767676767 -0.9797979797979798 0.0
-0.6565656565656566 -0.9797979797979798 0.0
-0.6363636363636364 -0.9797979797979798 0.0
-0.6161616161616161 -0.9797979797979798 0.0
-0.5959595959595959 -0.9797979797979798 0.0
-0.5757575757575757 -0.9797979797979798 0.0
-0.5555555555555556 -0.9797979797979798 0.0
-0.5353535353535352 -0.9797979797979798 0.0
-0.5151515151515151 -0.9797979797979798 0.0
-0.4949494949494949 -0.9797979797979798 0.0
-0.4747474747474747 -0.9797979797979798 0.0
-0.4545454545454545 -0.9797979797979798 0.0
-0.43434343434343425 -0.9797979797979798 0.0
-0.41414141414141414 -0.9797979797979798 0.0
-0.3939393939393939 -0.9797979797979798 0.0
-0.3737373737373737 -0.9797979797979798 0.0
-0.3535353535353535 -0.9797979797979798 0.0
-0.33333333333333326 -0.9797979797979798 0.0
-0.31313131313131304 -0.9797979797979798 0.0
-0.2929292929292928 -0.9797979797979798 0.0
-0.2727272727272727 -0.9797979797979798 0.0
-0.2525252525252525 -0.9797979797979798 0.0
-0.23232323232323226 -0.9797979797979798 0.0
-0.21212121212121204 -0.9797979797979798 0.0
-0.19191919191919182 -0.9797979797979798 0.0
-0.1717171717171716 -0.9797979797979798 0.0
-0.1515151515151515 -0.9797979797979798 0.0
-0.13131313131313127 -0.9797979797979798 0.0
-0.11111111111111105 -0.9797979797979798 0.0
-0.09090909090909083 -0.9797979797979798 0.0
-0.07070707070707061 -0.9797979797979798 0.0
-0.050505050505050386 -0.9797979797979798 0.0
-0.030303030303030276 -0.9797979797979798 0.0
-0.010101010101010055 -0.9797979797979798 0.0
0.010101010101010166 -0.9797979797979798 0.0
0.030303030303030498 -0.9797979797979798 0.0
0.05050505050505061 -0.9797979797979798 0.0
0.07070707070707072 -0.9797979797979798 0.0
0.09090909090909105 -0.9797979797979798 0.0
0.11111111111111116 -0.9797979797979798 0.0
0.1313131313131315 -0.9797979797979798 0.0
0.1515151515151516 -0.9797979797979798 0.0
0.1717171717171717 -0.9797979797979798 0.0
0.19191919191919204 -0.9797979797979798 0.0
0.21212121212121215 -0.9797979797979798 0.0
0.2323232323232325 -0.9797979797979798 0.0
0.2525252525252526 -0.9797979797979798 0.0
0.27272727272727293 -0.9797979797979798 0.0
0.29292929292929304 -0.9797979797979798 0.0
0.31313131313131315 -0.9797979797979798 0.0
0.3333333333333335 -0.9797979797979798 0.0
0.3535353535353536 -0.9797979797979798 0.0
0.3737373737373739 -0.9797979797979798 0.0
0.39393939393939403 -0.9797979797979798 0.0
0.41414141414141437 -0.9797979797979798 0.0
0.4343434343434345 -0.9797979797979798 0.0
0.4545454545454546 -0.9797979797979798 0.0
0.4747474747474749 -0.9797979797979798 0.0
0.49494949494949503 -0.9797979797979798 0.0
0.5151515151515154 -0.9797979797979798 0.0
0.5353535353535355 -0.9797979797979798 0.0
0.5555555555555556 -0.9797979797979798 0.0
0.5757575757575759 -0.9797979797979798 0.0
0.595959595959596 -0.9797979797979798 0.0
0.6161616161616164 -0.9797979797979798 0.0
0.6363636363636365 -0.9797979797979798 0.0
0.6565656565656568 -0.9797979797979798 0.0
0.6767676767676769 -0.9797979797979798 0.0
0.696969696969697 -0.9797979797979798 0.0
0.7171717171717173 -0.9797979797979798 0.0
0.7373737373737375 -0.9797979797979798 0.0
0.7575757575757578 -0.9797979797979798 0.0
0.7777777777777779 -0.9797979797979798 0.0
0.7979797979797982 -0.9797979797979798 0.0
0.8181818181818183 -0.9797979797979798 0.0
0.8383838383838385 -0.9797979797979798 0.0
0.8585858585858588 -0.9797979797979798 0.0
0.8787878787878789 -0.9797979797979798 0.0
0.8989898989898992 -0.9797979797979798 0.0
0.9191919191919193 -0.9797979797979798 0.0
0.9393939393939394 -0.9797979797979798 0.0
0.9595959595959598 -0.9797979797979798 0.0
0.9797979797979799 -0.9797979797979798 0.0
1.0 -0.9797979797979798 0.0
-1.0 -0.9595959595959596 0.0
-0.9797979797979798 -0.9595959595959596 0.0
-0.9595959595959596 -0.9595959595959596 0.0
-0.9393939393939394 -0.9595959595959596 0.0
-0.9191919191919192 -0.9595959595959596 0.0
-0.898989898989899 -0.9595959595959596 0.0
-0.8787878787878788 -0.9595959595959596 0.0
-0.8585858585858586 -0.9595959595959596 0.0
-0.8383838383838383 -0.9595959595959596 0.0
-0.8181818181818181 -0.9595959595959596 0.0
-0.797979797979798 -0.9595959595959596 0.0
-0.7777777777777778 -0.9595959595959596 0.0
-0.7575757575757576 -0.9595959595959596 0.0
-0.7373737373737373 -0.9595959595959596 0.0
-0.7171717171717171 -0.9595959595959596 0.0
-0.696969696969697 -0.9595959595959596 0.0
-0.6767676767676767 -0.9595959595959596 0.0
-0.6565656565656566 -0.9595959595959596 0.0
-0.6363636363636364 -0.9595959595959596 0.0
-0.6161616161616161 -0.9595959595959596 0.0
-0.5959595959595959 -0.9595959595959596 0.0
-0.5757575757575757 -0.9595959595959596 0.0
-0.5555555555555556 -0.9595959595959596 0.0
-0.5353535353535352 -0.9595959595959596 0.0
-0.5151515151515151 -0.9595959595959596 0.0
-0.4949494949494949 -0.9595959595959596 0.0
-0.4747474747474747 -0.9595959595959596 0.0
-0.4545454545454545 -0.9595959595959596 0.0
-0.43434343434343425 -0.9595959595959596 0.0
-0.41414141414141414 -0.9595959595959596 0.0
-0.3939393939393939 -0.9595959595959596 0.0
-0.3737373737373737 -0.9595959595959596 0.0
-0.3535353535353535 -0.9595959595959596 0.0
-0.33333333333333326 -0.9595959595959596 0.0
-0.31313131313131304 -0.9595959595959596 0.0
-0.2929292929292928 -0.9595959595959596 0.0
-0.2727272727272727 -0.9595959595959596 0.0
-0.2525252525252525 -0.9595959595959596 0.0
-0.23232323232323226 -0.9595959595959596 0.0
-0.21212121212121204 -0.9595959595959596 0.0
-0.19191919191919182 -0.9595959595959596 0.0
-0.1717171717171716 -0.9595959595959596 0.0
-0.1515151515151515 -0.9595959595959596 0.0
-0.13131313131313127 -0.9595959595959596 0.0
-0.11111111111111105 -0.9595959595959596 0.0
-0.09090909090909083 -0.9595959595959596 0.0
-0.07070707070707061 -0.9595959595959596 0.0
-0.050505050505050386 -0.9595959595959596 0.0
-0.030303030303030276 -0.9595959595959596 0.0
-0.010101010101010055 -0.9595959595959596 0.0
0.010101010101010166 -0.9595959595959596 0.0
0.030303030303030498 -0.9595959595959596 0.0
0.05050505050505061 -0.9595959595959596 0.0
0.07070707070707072 -0.9595959595959596 0.0
0.09090909090909105 -0.9595959595959596 0.0
0.11111111111111116 -0.9595959595959596 0.0
0.1313131313131315 -0.9595959595959596 0.0
0.1515151515151516 -0.9595959595959596 0.0
0.1717171717171717 -0.9595959595959596 0.0
0.19191919191919204 -0.9595959595959596 0.0
0.21212121212121215 -0.9595959595959596 0.0
[...]
POINT_DATA 10000
SCALARS u float 1
LOOKUP_TABLE default
7.44163990020752e-05
7.286667823791504e-05
7.15404748916626e-05
7.033348083496094e-05
6.92903995513916e-05
6.841123104095459e-05
6.750226020812988e-05
6.660819053649902e-05
6.587803363800049e-05
6.498396396636963e-05
6.404519081115723e-05
6.310641765594482e-05
6.201863288879395e-05
6.079673767089844e-05
5.950033664703369e-05
5.8084726333618164e-05
5.65648078918457e-05
5.501508712768555e-05
5.336105823516846e-05
5.1662325859069824e-05
5.0067901611328125e-05
4.842877388000488e-05
4.693865776062012e-05
4.5612454414367676e-05
4.450976848602295e-05
4.363059997558594e-05
4.296004772186279e-05
4.2691826820373535e-05
4.2691826820373535e-05
4.309415817260742e-05
4.388391971588135e-05
4.51207160949707e-05
4.6640634536743164e-05
4.86224889755249e-05
5.099177360534668e-05
5.370378494262695e-05
5.6877732276916504e-05
6.03795051574707e-05
6.432831287384033e-05
6.857514381408691e-05
7.320940494537354e-05
7.815659046173096e-05
8.337199687957764e-05
8.879601955413818e-05
9.436905384063721e-05
9.995698928833008e-05
0.00010547041893005371
0.00011071562767028809
0.00011561810970306396
0.00011996924877166748
0.00012370944023132324
0.0001266002655029297
0.00012856721878051758
0.00012940168380737305
0.0001289844512939453
0.00012725591659545898
0.00012415647506713867
0.00011965632438659668
0.00011382997035980225
0.00010670721530914307
9.85562801361084e-05
8.939206600189209e-05
7.94827938079834e-05
6.902217864990234e-05
5.8203935623168945e-05
4.710257053375244e-05
3.6090612411499023e-05
2.51084566116333e-05
1.4528632164001465e-05
4.291534423828125e-06
-5.5283308029174805e-06
-1.506507396697998e-05
-2.4184584617614746e-05
-3.3155083656311035e-05
-4.1931867599487305e-05
-5.0634145736694336e-05
-5.91278076171875e-05
-6.733834743499756e-05
-7.50124454498291e-05
-8.203089237213135e-05
-8.80509614944458e-05
-9.302794933319092e-05
-9.697675704956055e-05
-9.97781753540039e-05
-0.00010177493095397949
-0.00010329484939575195
-0.000104561448097229
-0.00010596215724945068
-0.00010782480239868164
-0.00011053681373596191
-0.0001141577959060669
-0.0001188814640045166
-0.00012476742267608643
-0.00013169646263122559
-0.00013959407806396484
-0.00014829635620117188
-0.00015746057033538818
-0.00016699731349945068
-0.00017665326595306396
-0.00018611550331115723
7.808208465576172e-05
7.669627666473389e-05
7.556378841400146e-05
7.452070713043213e-05
7.355213165283203e-05
7.259845733642578e-05
7.171928882598877e-05
7.078051567077637e-05
6.981194019317627e-05
6.879866123199463e-05
6.762146949768066e-05
6.639957427978516e-05
6.507337093353271e-05
6.35683536529541e-05
6.19739294052124e-05
6.020069122314453e-05
5.835294723510742e-05
5.650520324707031e-05
5.455315113067627e-05
5.263090133666992e-05
5.073845386505127e-05
4.895031452178955e-05
4.723668098449707e-05
4.57763671875e-05
4.4479966163635254e-05
4.348158836364746e-05
4.272162914276123e-05
4.228949546813965e-05
4.221498966217041e-05
4.248321056365967e-05
4.309415817260742e-05
4.412233829498291e-05
4.550814628601074e-05
4.7206878662109375e-05
4.9307942390441895e-05
5.179643630981445e-05
5.4642558097839355e-05
5.790591239929199e-05
6.158649921417236e-05
6.569921970367432e-05
7.010996341705322e-05
7.495284080505371e-05
8.01384449005127e-05
8.55177640914917e-05
9.110569953918457e-05
9.675323963165283e-05
0.00010232627391815186
0.00010760128498077393
0.00011266767978668213
0.00011721253395080566
0.00012111663818359375
0.0001242607831954956
0.00012655556201934814
0.0001277923583984375
0.0001278221607208252
0.00012663006782531738
0.00012409687042236328
0.00012022256851196289
0.00011496245861053467
0.00010854005813598633
0.00010092556476593018
9.231269359588623e-05
8.283555507659912e-05
7.268786430358887e-05
6.198883056640625e-05
5.091726779937744e-05
3.962218761444092e-05
2.835690975189209e-05
1.7121434211730957e-05
6.154179573059082e-06
-4.470348358154297e-06
-1.4737248420715332e-05
-2.460181713104248e-05
-3.407895565032959e-05
-4.32133674621582e-05
-5.2034854888916016e-05
-6.046891212463379e-05
-6.844103336334229e-05
-7.581710815429688e-05
-8.247792720794678e-05
-8.827447891235352e-05
-9.308755397796631e-05
-9.682774543762207e-05
-9.976327419281006e-05
-0.00010189414024353027
-0.00010347366333007812
-0.00010484457015991211
-0.00010630488395690918
-0.00010815262794494629
-0.00011071562767028809
-0.00011408329010009766
-0.00011847913265228271
-0.00012396275997161865
-0.00013044476509094238
-0.00013779103755950928
-0.00014597177505493164
-0.00015470385551452637
-0.0001637786626815796
-0.00017301738262176514
-0.00018215179443359375
8.131563663482666e-05
8.012354373931885e-05
7.905066013336182e-05
7.806718349456787e-05
7.706880569458008e-05
7.608532905578613e-05
7.510185241699219e-05
7.40736722946167e-05
7.289648056030273e-05
7.164478302001953e-05
7.024407386779785e-05
6.873905658721924e-05
6.708502769470215e-05
6.523728370666504e-05
6.330013275146484e-05
6.118416786193848e-05
5.908310413360596e-05
5.689263343811035e-05
5.4702162742614746e-05
5.245208740234375e-05
5.033612251281738e-05
4.83095645904541e-05
4.641711711883545e-05
4.4792890548706055e-05
4.3332576751708984e-05
4.215538501739502e-05
4.138052463531494e-05
4.073977470397949e-05
4.050135612487793e-05
4.069507122039795e-05
4.118680953979492e-05
4.200637340545654e-05
4.3198466300964355e-05
4.468858242034912e-05
4.661083221435547e-05
4.884600639343262e-05
5.14984130859375e-05
5.459785461425781e-05
5.8144330978393555e-05
6.207823753356934e-05
6.645917892456055e-05
7.128715515136719e-05
7.647275924682617e-05
8.19861888885498e-05
8.760392665863037e-05
9.337067604064941e-05
9.900331497192383e-05
0.00010451674461364746
0.00010967254638671875
0.00011438131332397461
0.00011846423149108887
0.00012190639972686768
0.00012448430061340332
0.00012612342834472656
0.00012663006782531738
0.00012595951557159424
0.0001240074634552002
0.00012077391147613525
0.00011628866195678711
0.00011040270328521729
0.00010348856449127197
9.554624557495117e-05
8.663535118103027e-05
7.68899917602539e-05
6.653368473052979e-05
5.564093589782715e-05
4.437565803527832e-05
3.281235694885254e-05
2.1249055862426758e-05
9.700655937194824e-06
-1.6391277313232422e-06
-1.2621283531188965e-05
-2.3290514945983887e-05
-3.3468008041381836e-05
-4.316866397857666e-05
-5.2303075790405273e-05
-6.0886144638061523e-05
-6.885826587677002e-05
-7.614493370056152e-05
-8.259713649749756e-05
-8.822977542877197e-05
-9.292364120483398e-05
-9.66489315032959e-05
-9.955465793609619e-05
-0.0001017451286315918
-0.00010344386100769043
-0.00010494887828826904
-0.00010645389556884766
-0.00010839104652404785
-0.00011083483695983887
-0.00011408329010009766
-0.0001182258129119873
-0.00012336671352386475
-0.0001294463872909546
-0.00013649463653564453
-0.00014415383338928223
-0.00015248358249664307
-0.00016114115715026855
-0.00016994774341583252
-0.00017878413200378418
8.407235145568848e-05
8.29845666885376e-05
8.192658424377441e-05
8.089840412139893e-05
7.988512516021729e-05
7.873773574829102e-05
7.759034633636475e-05
7.630884647369385e-05
7.493793964385986e-05
7.338821887969971e-05
7.173418998718262e-05
6.978213787078857e-05
6.780028343200684e-05
6.565451622009277e-05
6.331503391265869e-05
6.091594696044922e-05
5.8457255363464355e-05
5.5924057960510254e-05
5.340576171875e-05
5.099177360534668e-05
4.8607587814331055e-05
4.646182060241699e-05
4.4345855712890625e-05
4.2572617530822754e-05
4.105269908905029e-05
3.975629806518555e-05
3.878772258758545e-05
3.814697265625e-05
3.7863850593566895e-05
3.784894943237305e-05
3.822147846221924e-05
3.892183303833008e-05
3.997981548309326e-05
4.138052463531494e-05
4.3019652366638184e-05
4.519522190093994e-05
4.7713518142700195e-05
5.0649046897888184e-05
5.404651165008545e-05
5.796551704406738e-05
6.236135959625244e-05
6.721913814544678e-05
7.240474224090576e-05
7.794797420501709e-05
8.371472358703613e-05
8.955597877502441e-05
9.53376293182373e-05
0.00010095536708831787
0.00010623037815093994
0.00011107325553894043
0.00011542439460754395
0.00011913478374481201
0.0001220405101776123
0.00012402236461639404
0.00012505054473876953
0.0001249760389328003
0.000123634934425354
0.0001211315393447876
0.00011730194091796875
0.00011228024959564209
0.00010608136653900146
9.882450103759766e-05
9.05841588973999e-05
8.147954940795898e-05
7.160007953643799e-05
6.103515625e-05
4.996359348297119e-05
3.847479820251465e-05
2.664327621459961e-05
1.4781951904296875e-05
2.9206275939941406e-06
-8.791685104370117e-06
-2.0191073417663574e-05
-3.108382225036621e-05
-4.144012928009033e-05
-5.111098289489746e-05
-6.00963830947876e-05
-6.829202175140381e-05
-7.565319538116455e-05
-8.215010166168213e-05
-8.772313594818115e-05
-9.238719940185547e-05
-9.614229202270508e-05
-9.909272193908691e-05
-0.00010138750076293945
-0.00010319054126739502
-0.00010478496551513672
-0.0001064985990524292
-0.0001084059476852417
-0.00011083483695983887
-0.00011405348777770996
-0.00011807680130004883
-0.00012293457984924316
-0.0001287609338760376
-0.00013533234596252441
-0.00014275312423706055
-0.0001506209373474121
-0.0001589655876159668
-0.0001674741506576538
-0.00017598271369934082
8.641183376312256e-05
8.52346420288086e-05
8.411705493927002e-05
8.29547643661499e-05
8.174777030944824e-05
8.043646812438965e-05
7.905066013336182e-05
7.748603820800781e-05
7.578730583190918e-05
7.390975952148438e-05
7.18533992767334e-05
6.958842277526855e-05
6.720423698425293e-05
6.464123725891113e-05
6.201863288879395e-05
5.924701690673828e-05
5.646049976348877e-05
5.3629279136657715e-05
5.0887465476989746e-05
4.820525646209717e-05
4.5672059059143066e-05
4.328787326812744e-05
4.1157007217407227e-05
3.929436206817627e-05
3.7670135498046875e-05
3.635883331298828e-05
3.534555435180664e-05
3.4675002098083496e-05
3.427267074584961e-05
3.4302473068237305e-05
3.457069396972656e-05
3.5181641578674316e-05
3.612041473388672e-05
3.737211227416992e-05
3.898143768310547e-05
4.0978193283081055e-05
4.334747791290283e-05
4.620850086212158e-05
4.953145980834961e-05
5.339086055755615e-05
5.7697296142578125e-05
6.254017353057861e-05
6.780028343200684e-05
7.335841655731201e-05
7.91698694229126e-05
8.513033390045166e-05
9.09566879272461e-05
9.670853614807129e-05
0.00010210275650024414
0.0001071542501449585
0.00011165440082550049
0.00011557340621948242
0.00011882185935974121
0.00012123584747314453
0.0001227855682373047
0.00012330710887908936
0.00012268126010894775
0.00012090802192687988
0.00011788308620452881
0.00011371076107025146
0.00010836124420166016
0.00010192394256591797
9.447336196899414e-05
8.608400821685791e-05
7.681548595428467e-05
6.681680679321289e-05
5.6117773056030273e-05
4.486739635467529e-05
3.318488597869873e-05
2.117455005645752e-05
8.910894393920898e-06
-3.248453140258789e-06
-1.519918441772461e-05
-2.683699131011963e-05
-3.784894943237305e-05
-4.817545413970947e-05
-5.778670310974121e-05
-6.638467311859131e-05
-7.4043869972229e-05
-8.071959018707275e-05
-8.644163608551025e-05
-9.118020534515381e-05
-9.511411190032959e-05
-9.810924530029297e-05
-0.00010055303573608398
-0.00010262429714202881
-0.00010438263416290283
-0.00010617077350616455
-0.00010825693607330322
-0.00011080503463745117
-0.00011394917964935303
-0.00011788308620452881
-0.00012262165546417236
-0.00012817978858947754
-0.00013455748558044434
-0.00014160573482513428
-0.00014926493167877197
-0.000157281756401062
-0.00016552209854125977
-0.00017377734184265137
8.812546730041504e-05
8.687376976013184e-05
8.55475664138794e-05
8.42064619064331e-05
8.270144462585449e-05
8.113682270050049e-05
7.940828800201416e-05
7.750093936920166e-05
7.542967796325684e-05
7.309019565582275e-05
7.061660289764404e-05
6.802380084991455e-05
6.520748138427734e-05
6.224215030670166e-05
5.920231342315674e-05
5.614757537841797e-05
5.3048133850097656e-05
5.0067901611328125e-05
4.710257053375244e-05
4.4226646423339844e-05
4.1618943214416504e-05
3.9190053939819336e-05
3.701448440551758e-05
3.510713577270508e-05
3.351271152496338e-05
3.224611282348633e-05
3.1247735023498535e-05
3.059208393096924e-05
3.0279159545898438e-05
3.026425838470459e-05
3.0547380447387695e-05
3.1113624572753906e-05
3.196299076080322e-05
3.318488597869873e-05
3.466010093688965e-05
3.65525484085083e-05
3.878772258758545e-05
4.146993160247803e-05
4.4673681259155273e-05
4.838407039642334e-05
5.264580249786377e-05
5.733966827392578e-05
6.255507469177246e-05
6.80685043334961e-05
7.387995719909668e-05
7.972121238708496e-05
8.565187454223633e-05
9.140372276306152e-05
9.687244892120361e-05
0.00010195374488830566
0.00010664761066436768
0.00011081993579864502
0.0001144111156463623
0.00011730194091796875
0.00011940300464630127
0.00012059509754180908
0.00012074410915374756
0.00011977553367614746
0.00011770427227020264
0.00011448562145233154
0.00011011958122253418
0.00010466575622558594
9.810924530029297e-05
9.053945541381836e-05
8.20457935333252e-05
7.267296314239502e-05
6.254017353057861e-05
5.1721930503845215e-05
4.032254219055176e-05
2.847611904144287e-05
1.627206802368164e-05
3.874301910400391e-06
-8.553266525268555e-06
-2.072751522064209e-05
-3.241002559661865e-05
-4.3451786041259766e-05
-5.361437797546387e-05
-6.280839443206787e-05
-7.094442844390869e-05
-7.806718349456787e-05
-8.407235145568848e-05
-8.912384510040283e-05
-9.322166442871094e-05
-9.654462337493896e-05
-9.922683238983154e-05
-0.00010149180889129639
-0.00010356307029724121
-0.00010557472705841064
-0.00010779500007629395
-0.00011047720909118652
-0.00011365115642547607
-0.00011754035949707031
-0.00012221932411193848
-0.00012770295143127441
-0.00013393163681030273
-0.00014072656631469727
-0.0001481175422668457
-0.00015594065189361572
-0.00016392767429351807
-0.0001720339059829712
8.924305438995361e-05
8.77678394317627e-05
8.620321750640869e-05
8.456408977508545e-05
8.273124694824219e-05
8.074939250946045e-05
7.860362529754639e-05
7.624924182891846e-05
7.370114326477051e-05
7.097423076629639e-05
6.808340549468994e-05
6.498396396636963e-05
6.182491779327393e-05
5.8457255363464355e-05
5.5164098739624023e-05
5.1781535148620605e-05
4.8488378524780273e-05
4.526972770690918e-05
4.222989082336426e-05
3.9264559745788574e-05
3.6597251892089844e-05
3.421306610107422e-05
3.209710121154785e-05
3.0279159545898438e-05
2.8789043426513672e-05
2.759695053100586e-05
2.676248550415039e-05
2.6226043701171875e-05
2.5987625122070312e-05
2.60770320892334e-05
2.637505531311035e-05
2.6911497116088867e-05
2.7760863304138184e-05
2.893805503845215e-05
3.0294060707092285e-05
3.2067298889160156e-05
3.4168362617492676e-05
3.664195537567139e-05
3.962218761444092e-05
4.309415817260742e-05
4.711747169494629e-05
5.1647424697875977e-05
5.657970905303955e-05
6.194412708282471e-05
6.763637065887451e-05
7.331371307373047e-05
7.91400671005249e-05
8.483231067657471e-05
9.02712345123291e-05
9.542703628540039e-05
0.00010025501251220703
0.00010466575622558594
0.00010858476161956787
0.0001119375228881836
0.00011464953422546387
0.00011660158634185791
0.00011758506298065186
0.00011757016181945801
0.00011658668518066406
0.00011436641216278076
0.00011110305786132812
0.00010679662227630615
0.00010120868682861328
9.462237358093262e-05
8.694827556610107e-05
7.838010787963867e-05
6.887316703796387e-05
5.860626697540283e-05
4.769861698150635e-05
3.629922866821289e-05
2.4333596229553223e-05
1.1965632438659668e-05
-5.066394805908203e-07
-1.30385160446167e-05
-2.5212764739990234e-05
-3.6835670471191406e-05
-4.7594308853149414e-05
-5.742907524108887e-05
-6.620585918426514e-05
-7.37905502319336e-05
-8.033215999603271e-05
-8.578598499298096e-05
-9.033083915710449e-05
-9.404122829437256e-05
-9.709596633911133e-05
-9.976327419281006e-05
-0.00010213255882263184
-0.00010442733764648438
-0.00010696053504943848
-0.00010985136032104492
-0.00011314451694488525
-0.00011713802814483643
-0.00012183189392089844
-0.00012721121311187744
-0.00013330578804016113
-0.00014002621173858643
-0.0001472383737564087
-0.0001548677682876587
-0.00016273558139801025
-0.0001706331968307495
8.96751880645752e-05
8.784234523773193e-05
8.594989776611328e-05
8.392333984375e-05
8.164346218109131e-05
7.918477058410645e-05
7.659196853637695e-05
7.377564907073975e-05
7.073581218719482e-05
6.748735904693604e-05
6.416440010070801e-05
6.066262722015381e-05
5.708634853363037e-05
5.348026752471924e-05
4.9874186515808105e-05
4.6312808990478516e-05
4.285573959350586e-05
3.954768180847168e-05
3.643333911895752e-05
3.3542513847351074e-05
3.096461296081543e-05
2.8654932975769043e-05
2.6717782020568848e-05
2.504885196685791e-05
2.3767352104187012e-05
2.275407314300537e-05
2.2098422050476074e-05
2.1755695343017578e-05
2.1725893020629883e-05
2.1904706954956055e-05
2.2366642951965332e-05
2.2977590560913086e-05
2.3752450942993164e-05
2.485513687133789e-05
2.613663673400879e-05
2.7686357498168945e-05
2.9608607292175293e-05
3.1828880310058594e-05
3.4496188163757324e-05
3.7670135498046875e-05
4.13358211517334e-05
4.547834396362305e-05
5.011260509490967e-05
5.511939525604248e-05
6.046891212463379e-05
6.595253944396973e-05
7.145106792449951e-05
7.700920104980469e-05
8.226931095123291e-05
8.74251127243042e-05
9.231269359588623e-05
9.6932053565979e-05
0.00010117888450622559
0.00010500848293304443
0.000108376145362854
0.00011098384857177734
0.00011296570301055908
0.00011402368545532227
0.0001140981912612915
0.0001131892204284668
0.00011117756366729736
0.00010804831981658936
0.00010374188423156738
9.818375110626221e-05
9.141862392425537e-05
8.359551429748535e-05
7.480382919311523e-05
6.51925802230835e-05
5.50001859664917e-05
4.4092535972595215e-05
3.263354301452637e-05
2.0802021026611328e-05
8.434057235717773e-06
-4.038214683532715e-06
-1.6450881958007812e-05
-2.8446316719055176e-05
-3.9771199226379395e-05
-5.0187110900878906e-05
-5.9545040130615234e-05
-6.784498691558838e-05
-7.49826431274414e-05
-8.10474157333374e-05
-8.61138105392456e-05
-9.034574031829834e-05
-9.395182132720947e-05
-9.711086750030518e-05
-9.994208812713623e-05
-0.0001027137041091919
-0.00010558962821960449
-0.00010877847671508789
-0.00011235475540161133
-0.00011651217937469482
-0.00012123584747314453
-0.00012671947479248047
-0.00013272464275360107
-0.00013943016529083252
-0.0001465827226638794
-0.00015407800674438477
-0.0001618117094039917
-0.00016964972019195557
8.931756019592285e-05
8.705258369445801e-05
8.468329906463623e-05
8.213520050048828e-05
7.937848567962646e-05
7.635354995727539e-05
7.325410842895508e-05
6.988644599914551e-05
6.639957427978516e-05
6.271898746490479e-05
5.8978796005249023e-05
5.511939525604248e-05
5.120038986206055e-05
4.735589027404785e-05
4.3585896492004395e-05
3.992021083831787e-05
3.6403536796569824e-05
3.311038017272949e-05
3.0100345611572266e-05
2.7313828468322754e-05
2.491474151611328e-05
2.2873282432556152e-05
2.110004425048828e-05
1.9729137420654297e-05
1.8671154975891113e-05
1.798570156097412e-05
1.7598271369934082e-05
1.74790620803833e-05
1.767277717590332e-05
1.8030405044555664e-05
1.8581748008728027e-05
1.9297003746032715e-05
2.0176172256469727e-05
2.123415470123291e-05
2.2366642951965332e-05
2.378225326538086e-05
2.5406479835510254e-05
2.7358531951904297e-05
2.968311309814453e-05
3.235042095184326e-05
3.5569071769714355e-05
3.921985626220703e-05
4.3392181396484375e-05
4.787743091583252e-05
5.272030830383301e-05
5.774199962615967e-05
6.292760372161865e-05
6.80685043334961e-05
7.325410842895508e-05
7.826089859008789e-05
8.308887481689453e-05
8.785724639892578e-05
9.240210056304932e-05
9.66489315032959e-05
0.00010056793689727783
0.00010401010513305664
0.0001068115234375
0.00010901689529418945
0.00011035799980163574
0.00011077523231506348
0.00011026859283447266
0.00010861456394195557
0.00010569393634796143
0.00010138750076293945
9.56803560256958e-05
8.861720561981201e-05
8.049607276916504e-05
7.152557373046875e-05
6.186962127685547e-05
5.1662325859069824e-05
4.0978193283081055e-05
2.9668211936950684e-05
1.7970800399780273e-05
5.796551704406738e-06
-6.5267086029052734e-06
-1.8656253814697266e-05
-3.0308961868286133e-05
-4.124641418457031e-05
-5.1215291023254395e-05
-6.0111284255981445e-05
-6.788969039916992e-05
-7.463991641998291e-05
-8.040666580200195e-05