# vtk DataFile Version 3.0
2D PINN Solution
ASCII
DATASET STRUCTURED_GRID
DIMENSIONS 100 100 1
POINTS 10000 float
-1.0 -1.0 0.0
-0.9797979797979798 -1.0 0.0
-0.9595959595959596 -1.0 0.0
-0.9393939393939394 -1.0 0.0
-0.9191919191919192 -1.0 0.0
-0.898989898989899 -1.0 0.0
-0.8787878787878788 -1.0 0.0
-0.8585858585858586 -1.0 0.0
-0.8383838383838383 -1.0 0.0
-0.8181818181818181 -1.0 0.0
-0.797979797979798 -1.0 0.0
-0.7777777777777778 -1.0 0.0
-0.7575757575757576 -1.0 0.0
-0.7373737373737373 -1.0 0.0
-0.7171717171717171 -1.0 0.0
-0.696969696969697 -1.0 0.0
-0.6767676767676767 -1.0 0.0
-0.6565656565656566 -1.0 0.0
-0.6363636363636364 -1.0 0.0
-0.6161616161616161 -1.0 0.0
-0.5959595959595959 -1.0 0.0
-0.5757575757575757 -1.0 0.0
-0.5555555555555556 -1.0 0.0
-0.5353535353535352 -1.0 0.0
-0.5151515151515151 -1.0 0.0
-0.4949494949494949 -1.0 0.0
-0.4747474747474747 -1.0 0.0
-0.4545454545454545 -1.0 0.0
-0.43434343434343425 -1.0 0.0
-0.41414141414141414 -1.0 0.0
-0.3939393939393939 -1.0 0.0
-0.3737373737373737 -1.0 0.0
-0.3535353535353535 -1.0 0.0
-0.33333333333333326 -1.0 0.0
-0.31313131313131304 -1.0 0.0
-0.2929292929292928 -1.0 0.0
-0.2727272727272727 -1.0 0.0
-0.2525252525252525 -1.0 0.0
-0.23232323232323226 -1.0 0.0
-0.21212121212121204 -1.0 0.0
-0.19191919191919182 -1.0 0.0
-0.1717171717171716 -1.0 0.0
-0.1515151515151515 -1.0 0.0
-0.13131313131313127 -1.0 0.0
-0.11111111111111105 -1.0 0.0
-0.09090909090909083 -1.0 0.0
-0.07070707070707061 -1.0 0.0
-0.050505050505050386 -1.0 0.0
-0.030303030303030276 -1.0 0.0
-0.010101010101010055 -1.0 0.0
0.010101010101010166 -1.0 0.0
0.030303030303030498 -1.0 0.0
0.05050505050505061 -1.0 0.0
0.07070707070707072 -1.0 0.0
0.09090909090909105 -1.0 0.0
0.11111111111111116 -1.0 0.0
0.1313131313131315 -1.0 0.0
0.1515151515151516 -1.0 0.0
0.1717171717171717 -1.0 0.0
0.19191919191919204 -1.0 0.0
0.21212121212121215 -1.0 0.0
0.2323232323232325 -1.0 0.0
0.2525252525252526 -1.0 0.0
0.27272727272727293 -1.0 0.0
0.29292929292929304 -1.0 0.0
0.31313131313131315 -1.0 0.0
0.3333333333333335 -1.0 0.0
0.3535353535353536 -1.0 0.0
0.3737373737373739 -1.0 0.0
0.39393939393939403 -1.0 0.0
0.41414141414141437 -1.0 0.0
0.4343434343434345 -1.0 0.0
0.4545454545454546 -1.0 0.0
0.4747474747474749 -1.0 0.0
0.49494949494949503 -1.0 0.0
0.5151515151515154 -1.0 0.0
0.5353535353535355 -1.0 0.0
0.5555555555555556 -1.0 0.0
0.5757575757575759 -1.0 0.0
0.595959595959596 -1.0 0.0
0.6161616161616164 -1.0 0.0
0.6363636363636365 -1.0 0.0
0.6565656565656568 -1.0 0.0
0.6767676767676769 -1.0 0.0
0.696969696969697 -1.0 0.0
0.7171717171717173 -1.0 0.0
0.7373737373737375 -1.0 0.0
0.7575757575757578 -1.0 0.0
0.7777777777777779 -1.0 0.0
0.7979797979797982 -1.0 0.0
0.8181818181818183 -1.0 0.0
0.8383838383838385 -1.0 0.0
0.8585858585858588 -1.0 0.0
0.8787878787878789 -1.0 0.0
0.8989898989898992 -1.0 0.0
0.9191919191919193 -1.0 0.0
0.9393939393939394 -1.0 0.0
0.9595959595959598 -1.0 0.0
0.9797979797979799 -1.0 0.0
1.0 -1.0 0.0
-1.0 -0.9797979797979798 0.0
-0.9797979797979798 -0.9797979797979798 0.0
-0.9595959595959596 -0.9797979797979798 0.0
-0.9393939393939394 -0.9797979797979798 0.0
-0.9191919191919192 -0.9797979797979798 0.0
-0.898989898989899 -0.9797979797979798 0.0
-0.8787878787878788 -0.9797979797979798 0.0
-0.8585858585858586 -0.9797979797979798 0.0
-0.8383838383838383 -0.9797979797979798 0.0
-0.8181818181818181 -0.9797979797979798 0.0
-0.797979797979798 -0.9797979797979798 0.0
-0.7777777777777778 -0.9797979797979798 0.0
-0.7575757575757576 -0.9797979797979798 0.0
-0.7373737373737373 -0.9797979797979798 0.0
-0.7171717171717171 -0.9797979797979798 0.0
-0.696969696969697 -0.9797979797979798 0.0
-0.6767676767676767 -0.9797979797979798 0.0
-0.6565656565656566 -0.9797979797979798 0.0
-0.6363636363636364 -0.9797979797979798 0.0
-0.6161616161616161 -0.9797979797979798 0.0
-0.5959595959595959 -0.9797979797979798 0.0
-0.5757575757575757 -0.9797979797979798 0.0
-0.5555555555555556 -0.9797979797979798 0.0
-0.5353535353535352 -0.9797979797979798 0.0
-0.5151515151515151 -0.9797979797979798 0.0
-0.4949494949494949 -0.9797979797979798 0.0
-0.4747474747474747 -0.9797979797979798 0.0
-0.4545454545454545 -0.9797979797979798 0.0
-0.43434343434343425 -0.9797979797979798 0.0
-0.41414141414141414 -0.9797979797979798 0.0
-0.3939393939393939 -0.9797979797979798 0.0
-0.3737373737373737 -0.9797979797979798 0.0
-0.3535353535353535 -0.9797979797979798 0.0
-0.33333333333333326 -0.9797979797979798 0.0
-0.31313131313131304 -0.9797979797979798 0.0
-0.2929292929292928 -0.9797979797979798 0.0
-0.2727272727272727 -0.9797979797979798 0.0
-0.2525252525252525 -0.9797979797979798 0.0
-0.23232323232323226 -0.9797979797979798 0.0
-0.21212121212121204 -0.9797979797979798 0.0
-0.19191919191919182 -0.9797979797979798 0.0
-0.1717171717171716 -0.9797979797979798 0.0
-0.1515151515151515 -0.9797979797979798 0.0
-0.13131313131313127 -0.9797979797979798 0.0
-0.11111111111111105 -0.9797979797979798 0.0
-0.09090909090909083 -0.9797979797979798 0.0
-0.07070707070707061 -0.9797979797979798 0.0
-0.050505050505050386 -0.9797979797979798 0.0
-0.030303030303030276 -0.9797979797979798 0.0
-0.010101010101010055 -0.9797979797979798 0.0
0.010101010101010166 -0.9797979797979798 0.0
0.030303030303030498 -0.9797979797979798 0.0
0.05050505050505061 -0.9797979797979798 0.0
0.07070707070707072 -0.9797979797979798 0.0
0.09090909090909105 -0.9797979797979798 0.0
0.11111111111111116 -0.9797979797979798 0.0
0.1313131313131315 -0.9797979797979798 0.0
0.1515151515151516 -0.9797979797979798 0.0
0.1717171717171717 -0.9797979797979798 0.0
0.19191919191919204 -0.9797979797979798 0.0
0.21212121212121215 -0.9797979797979798 0.0
0.2323232323232325 -0.9797979797979798 0.0
0.2525252525252526 -0.9797979797979798 0.0
0.27272727272727293 -0.9797979797979798 0.0
0.29292929292929304 -0.9797979797979798 0.0
0.31313131313131315 -0.9797979797979798 0.0
0.3333333333333335 -0.9797979797979798 0.0
0.3535353535353536 -0.9797979797979798 0.0
0.3737373737373739 -0.9797979797979798 0.0
0.39393939393939403 -0.9797979797979798 0.0
0.41414141414141437 -0.9797979797979798 0.0
0.4343434343434345 -0.9797979797979798 0.0
0.4545454545454546 -0.9797979797979798 0.0
0.4747474747474749 -0.9797979797979798 0.0
0.49494949494949503 -0.9797979797979798 0.0
0.5151515151515154 -0.9797979797979798 0.0
0.5353535353535355 -0.9797979797979798 0.0
0.5555555555555556 -0.9797979797979798 0.0
0.5757575757575759 -0.9797979797979798 0.0
0.595959595959596 -0.9797979797979798 0.0
0.6161616161616164 -0.9797979797979798 0.0
0.6363636363636365 -0.9797979797979798 0.0
0.6565656565656568 -0.9797979797979798 0.0
0.6767676767676769 -0.9797979797979798 0.0
0.696969696969697 -0.9797979797979798 0.0
0.7171717171717173 -0.9797979797979798 0.0
0.7373737373737375 -0.9797979797979798 0.0
0.7575757575757578 -0.9797979797979798 0.0
0.7777777777777779 -0.9797979797979798 0.0
0.7979797979797982 -0.9797979797979798 0.0
0.8181818181818183 -0.9797979797979798 0.0
0.8383838383838385 -0.9797979797979798 0.0
0.8585858585858588 -0.9797979797979798 0.0
0.8787878787878789 -0.9797979797979798 0.0
0.8989898989898992 -0.9797979797979798 0.0
0.9191919191919193 -0.9797979797979798 0.0
0.9393939393939394 -0.9797979797979798 0.0
0.9595959595959598 -0.9797979797979798 0.0
0.9797979797979799 -0.9797979797979798 0.0
1.0 -0.9797979797979798 0.0
-1.0 -0.9595959595959596 0.0
-0.9797979797979798 -0.9595959595959596 0.0
-0.9595959595959596 -0.9595959595959596 0.0
-0.9393939393939394 -0.9595959595959596 0.0
-0.9191919191919192 -0.9595959595959596 0.0
-0.898989898989899 -0.9595959595959596 0.0
-0.8787878787878788 -0.9595959595959596 0.0
-0.8585858585858586 -0.9595959595959596 0.0
-0.8383838383838383 -0.9595959595959596 0.0
-0.8181818181818181 -0.9595959595959596 0.0
-0.797979797979798 -0.9595959595959596 0.0
-0.7777777777777778 -0.9595959595959596 0.0
-0.7575757575757576 -0.9595959595959596 0.0
-0.7373737373737373 -0.9595959595959596 0.0
-0.7171717171717171 -0.9595959595959596 0.0
-0.696969696969697 -0.9595959595959596 0.0
-0.6767676767676767 -0.9595959595959596 0.0
-0.6565656565656566 -0.9595959595959596 0.0
-0.6363636363636364 -0.9595959595959596 0.0
-0.6161616161616161 -0.9595959595959596 0.0
-0.5959595959595959 -0.9595959595959596 0.0
-0.5757575757575757 -0.9595959595959596 0.0
-0.5555555555555556 -0.9595959595959596 0.0
-0.5353535353535352 -0.9595959595959596 0.0
-0.5151515151515151 -0.9595959595959596 0.0
-0.4949494949494949 -0.9595959595959596 0.0
-0.4747474747474747 -0.9595959595959596 0.0
-0.4545454545454545 -0.9595959595959596 0.0
-0.43434343434343425 -0.9595959595959596 0.0
-0.41414141414141414 -0.9595959595959596 0.0
-0.3939393939393939 -0.9595959595959596 0.0
-0.3737373737373737 -0.9595959595959596 0.0
-0.3535353535353535 -0.9595959595959596 0.0
-0.33333333333333326 -0.9595959595959596 0.0
-0.31313131313131304 -0.9595959595959596 0.0
-0.2929292929292928 -0.9595959595959596 0.0
-0.2727272727272727 -0.9595959595959596 0.0
-0.2525252525252525 -0.9595959595959596 0.0
-0.23232323232323226 -0.9595959595959596 0.0
-0.21212121212121204 -0.9595959595959596 0.0
-0.19191919191919182 -0.9595959595959596 0.0
-0.1717171717171716 -0.9595959595959596 0.0
-0.1515151515151515 -0.9595959595959596 0.0
-0.13131313131313127 -0.9595959595959596 0.0
-0.11111111111111105 -0.9595959595959596 0.0
-0.09090909090909083 -0.9595959595959596 0.0
-0.07070707070707061 -0.9595959595959596 0.0
-0.050505050505050386 -0.9595959595959596 0.0
-0.030303030303030276 -0.9595959595959596 0.0
-0.010101010101010055 -0.9595959595959596 0.0
0.010101010101010166 -0.9595959595959596 0.0
0.030303030303030498 -0.9595959595959596 0.0
0.05050505050505061 -0.9595959595959596 0.0
0.07070707070707072 -0.9595959595959596 0.0
0.09090909090909105 -0.9595959595959596 0.0
0.11111111111111116 -0.9595959595959596 0.0
0.1313131313131315 -0.9595959595959596 0.0
0.1515151515151516 -0.9595959595959596 0.0
0.1717171717171717 -0.9595959595959596 0.0
0.19191919191919204 -0.9595959595959596 0.0
0.21212121212121215 -0.9595959595959596 0.0
[...]
POINT_DATA 10000
SCALARS u float 1
LOOKUP_TABLE default
-4.659593105316162e-05
-5.6937336921691895e-05
-6.705522537231445e-05
-7.690489292144775e-05
-8.629262447357178e-05
-9.518861770629883e-05
-0.00010351836681365967
-0.00011123716831207275
-0.00011830031871795654
-0.00012475252151489258
-0.00013068318367004395
-0.00013606250286102295
-0.00014103949069976807
-0.00014582276344299316
-0.0001503974199295044
-0.0001548975706100464
-0.00015944242477416992
-0.00016407668590545654
-0.00016894936561584473
-0.00017392635345458984
-0.00017909705638885498
-0.00018437206745147705
-0.00018981099128723145
-0.00019524991512298584
-0.00020077824592590332
-0.00020618736743927002
-0.00021152198314666748
-0.00021666288375854492
-0.0002218484878540039
-0.00022685527801513672
-0.000231817364692688
-0.00023667514324188232
-0.00024150311946868896
-0.00024628639221191406
-0.0002509653568267822
-0.00025545060634613037
-0.0002596825361251831
-0.00026366114616394043
-0.00026701390743255615
-0.00026991963386535645
-0.00027205049991607666
-0.00027342140674591064
-0.00027395784854888916
-0.0002736002206802368
-0.0002723485231399536
-0.00027020275592803955
-0.0002671778202056885
-0.00026334822177886963
-0.0002588033676147461
-0.00025363266468048096
-0.00024782121181488037
-0.00024150311946868896
-0.00023484230041503906
-0.00022782385349273682
-0.00022058188915252686
-0.00021319091320037842
-0.00020575523376464844
-0.00019825994968414307
-0.00019082427024841309
-0.00018352270126342773
-0.0001764148473739624
-0.0001695007085800171
-0.00016285479068756104
-0.00015658140182495117
-0.00015063583850860596
-0.00014516711235046387
-0.00014005601406097412
-0.0001353919506072998
-0.00013127923011779785
-0.00012756884098052979
-0.00012446939945220947
-0.00012180209159851074
-0.00011976063251495361
-0.00011818110942840576
-0.00011722743511199951
-0.00011681020259857178
-0.00011688470840454102
-0.0001176297664642334
-0.00011894106864929199
-0.00012086331844329834
-0.00012330710887908936
-0.00012637674808502197
-0.00012990832328796387
-0.00013396143913269043
-0.00013841688632965088
-0.0001433044672012329
-0.0001484304666519165
-0.00015367567539215088
-0.00015908479690551758
-0.00016430020332336426
-0.00016939640045166016
-0.00017417967319488525
-0.00017845630645751953
-0.0001821666955947876
-0.00018523633480072021
-0.0001875758171081543
-0.00018909573554992676
-0.00018967688083648682
-0.00018937885761260986
-0.0001881718635559082
-4.795193672180176e-05
-5.759298801422119e-05
-6.702542304992676e-05
-7.611513137817383e-05
-8.484721183776855e-05
-9.308755397796631e-05
-0.00010079145431518555
-0.00010791420936584473
-0.00011450052261352539
-0.00012052059173583984
-0.00012603402137756348
-0.00013116002082824707
-0.00013589859008789062
-0.0001404285430908203
-0.00014483928680419922
-0.00014920532703399658
-0.00015372037887573242
-0.00015839934349060059
-0.00016330182552337646
-0.0001684725284576416
-0.00017383694648742676
-0.00017936527729034424
-0.0001850426197052002
-0.0001907944679260254
-0.00019656121730804443
-0.00020228326320648193
-0.0002079010009765625
-0.00021332502365112305
-0.00021861493587493896
-0.0002238750457763672
-0.00022895634174346924
-0.00023399293422698975
-0.00023891031742095947
-0.00024375319480895996
-0.00024853646755218506
-0.0002532154321670532
-0.0002576112747192383
-0.0002616792917251587
-0.00026533007621765137
-0.000268399715423584
-0.0002707839012145996
-0.000272408127784729
-0.0002730637788772583
-0.00027292966842651367
-0.0002719014883041382
-0.0002699345350265503
-0.00026704370975494385
-0.0002633631229400635
-0.00025890767574310303
-0.0002537965774536133
-0.00024805963039398193
-0.000241890549659729
-0.00023536384105682373
-0.00022846460342407227
-0.00022143125534057617
-0.0002142488956451416
-0.00020708143711090088
-0.00019994378089904785
-0.00019294023513793945
-0.00018610060214996338
-0.00017942488193511963
-0.00017304718494415283
-0.00016695261001586914
-0.00016123056411743164
-0.00015576183795928955
-0.00015078485012054443
-0.00014616549015045166
-0.00014196336269378662
-0.000138208270072937
-0.00013491511344909668
-0.0001319795846939087
-0.00012956559658050537
-0.00012755393981933594
-0.00012610852718353271
-0.00012506544589996338
-0.00012451410293579102
-0.00012440979480743408
-0.00012482702732086182
-0.00012579560279846191
-0.00012721121311187744
-0.00012926757335662842
-0.00013181567192077637
-0.00013490021228790283
-0.00013841688632965088
-0.0001424252986907959
-0.0001468658447265625
-0.0001516193151473999
-0.00015661120414733887
-0.00016167759895324707
-0.00016677379608154297
-0.00017175078392028809
-0.0001764446496963501
-0.00018073618412017822
-0.00018456578254699707
-0.00018781423568725586
-0.00019021332263946533
-0.00019182264804840088
-0.0001925826072692871
-0.00019244849681854248
-0.0001913607120513916
-4.8741698265075684e-05
-5.771219730377197e-05
-6.635487079620361e-05
-7.477402687072754e-05
-8.285045623779297e-05
-9.049475193023682e-05
-9.766221046447754e-05
-0.00010421872138977051
-0.00011032819747924805
-0.00011591613292694092
-0.0001211017370223999
-0.0001259148120880127
-0.0001303553581237793
-0.00013467669486999512
-0.00013896822929382324
-0.00014327466487884521
-0.00014770030975341797
-0.0001523345708847046
-0.0001573115587234497
-0.00016255676746368408
-0.00016808509826660156
-0.0001738220453262329
-0.00017975270748138428
-0.00018575787544250488
-0.00019174814224243164
-0.0001977980136871338
-0.00020356476306915283
-0.00020928680896759033
-0.00021480023860931396
-0.00022014975547790527
-0.00022539496421813965
-0.0002305060625076294
-0.00023552775382995605
-0.0002406090497970581
-0.00024552643299102783
-0.0002503246068954468
-0.00025485455989837646
-0.00025922060012817383
-0.0002630949020385742
-0.00026641786098480225
-0.0002690553665161133
-0.00027097761631011963
-0.0002719312906265259
-0.00027202069759368896
-0.00027120113372802734
-0.00026935338973999023
-0.00026670098304748535
-0.00026310980319976807
-0.0002587437629699707
-0.00025366246700286865
-0.000247955322265625
-0.0002418309450149536
-0.00023533403873443604
-0.00022849440574645996
-0.0002215057611465454
-0.00021451711654663086
-0.0002074986696243286
-0.0002005845308303833
-0.00019381940364837646
-0.0001872628927230835
-0.00018103420734405518
-0.00017508864402770996
-0.0001694411039352417
-0.00016421079635620117
-0.00015929341316223145
-0.00015470385551452637
-0.0001506209373474121
-0.00014682114124298096
-0.00014352798461914062
-0.0001405775547027588
-0.000138014554977417
-0.00013586878776550293
-0.00013409554958343506
-0.00013276934623718262
-0.00013180077075958252
-0.0001312047243118286
-0.00013108551502227783
-0.00013136863708496094
-0.00013208389282226562
-0.0001332610845565796
-0.00013490021228790283
-0.00013715028762817383
-0.00013971328735351562
-0.00014290213584899902
-0.000146523118019104
-0.00015060603618621826
-0.00015500187873840332
-0.00015968084335327148
-0.00016464293003082275
-0.00016951560974121094
-0.00017440319061279297
-0.00017911195755004883
-0.0001834183931350708
-0.0001872926950454712
-0.00019049644470214844
-0.00019307434558868408
-0.00019481778144836426
-0.00019566714763641357
-0.00019562244415283203
-0.00019462406635284424
-4.903972148895264e-05
-5.7324767112731934e-05
-6.531178951263428e-05
-7.304549217224121e-05
-8.051097393035889e-05
-8.748471736907959e-05
-9.40561294555664e-05
-0.00010019540786743164
-0.0001058727502822876
-0.00011110305786132812
-0.00011590123176574707
-0.00012040138244628906
-0.0001246035099029541
-0.0001287311315536499
-0.0001327991485595703
-0.0001370161771774292
-0.00014138221740722656
-0.00014600157737731934
-0.00015097856521606445
-0.00015628337860107422
-0.00016193091869354248
-0.00016783177852630615
-0.00017395615577697754
-0.0001802593469619751
-0.00018645823001861572
-0.0001926422119140625
-0.0001987069845199585
-0.00020457804203033447
-0.00021031498908996582
-0.0002157837152481079
-0.00022111833095550537
-0.0002264082431793213
-0.00023156404495239258
-0.00023667514324188232
-0.00024177134037017822
-0.00024674832820892334
-0.00025156140327453613
-0.00025616586208343506
-0.00026035308837890625
-0.0002639889717102051
-0.0002669990062713623
-0.0002692192792892456
-0.0002705305814743042
-0.00027094781398773193
-0.0002703368663787842
-0.00026872754096984863
-0.00026626884937286377
-0.00026279687881469727
-0.0002584904432296753
-0.0002534240484237671
-0.0002478063106536865
-0.00024159252643585205
-0.0002350062131881714
-0.00022813677787780762
-0.00022111833095550537
-0.00021412968635559082
-0.00020714104175567627
-0.0002003312110900879
-0.00019377470016479492
-0.00018750131130218506
-0.00018149614334106445
-0.00017589330673217773
-0.00017057359218597412
-0.0001656860113143921
-0.0001612156629562378
-0.0001571178436279297
-0.00015339255332946777
-0.00015014410018920898
-0.000147208571434021
-0.0001446753740310669
-0.00014252960681915283
-0.00014069676399230957
-0.0001392662525177002
-0.00013814866542816162
-0.00013737380504608154
-0.0001369267702102661
-0.00013680756092071533
-0.00013706088066101074
-0.0001376718282699585
-0.00013871490955352783
-0.0001401454210281372
-0.00014203786849975586
-0.0001443922519683838
-0.00014725327491760254
-0.00015051662921905518
-0.00015430152416229248
-0.00015844404697418213
-0.00016292929649353027
-0.0001675933599472046
-0.0001723766326904297
-0.00017721951007843018
-0.00018186867237091064
-0.00018621981143951416
-0.00019012391567230225
-0.00019344687461853027
-0.000196114182472229
-0.00019793212413787842
-0.00019887089729309082
-0.0001989305019378662
-0.00019800662994384766
-4.887580871582031e-05
-5.640089511871338e-05
-6.377696990966797e-05
-7.08848237991333e-05
-7.767975330352783e-05
-8.416175842285156e-05
-9.02414321899414e-05
-9.588897228240967e-05
-0.00010114908218383789
-0.00010599195957183838
-0.00011052191257476807
-0.00011466443538665771
-0.00011867284774780273
-0.00012262165546417236
-0.00012652575969696045
-0.00013059377670288086
-0.0001348257064819336
-0.00013945996761322021
-0.00014440715312957764
-0.00014972686767578125
-0.00015547871589660645
-0.0001615285873413086
-0.0001678168773651123
-0.0001742541790008545
-0.00018069148063659668
-0.00018700957298278809
-0.0001932680606842041
-0.00019928812980651855
-0.00020506978034973145
-0.0002107173204421997
-0.0002161860466003418
-0.00022158026695251465
-0.00022688508033752441
-0.00023216009140014648
-0.0002374202013015747
-0.00024265050888061523
-0.00024777650833129883
-0.00025269389152526855
-0.0002572387456893921
-0.00026129186153411865
-0.0002647489309310913
-0.00026732683181762695
-0.00026907026767730713
-0.0002698153257369995
-0.00026954710483551025
-0.00026817619800567627
-0.00026585161685943604
-0.000262528657913208
-0.0002582967281341553
-0.00025323033332824707
-0.0002474933862686157
-0.00024121999740600586
-0.0002345442771911621
-0.00022758543491363525
-0.00022041797637939453
-0.0002133101224899292
-0.0002062767744064331
-0.00019951164722442627
-0.00019294023513793945
-0.00018669664859771729
-0.00018090009689331055
-0.0001754462718963623
-0.00017045438289642334
-0.00016589462757110596
-0.00016170740127563477
-0.00015795230865478516
-0.00015465915203094482
-0.00015176832675933838
-0.00014927983283996582
-0.0001471787691116333
-0.00014537572860717773
-0.00014400482177734375
-0.00014293193817138672
-0.0001420825719833374
-0.00014160573482513428
-0.00014138221740722656
-0.0001414269208908081
-0.00014175474643707275
-0.00014244019985198975
-0.0001434236764907837
-0.00014476478099822998
-0.00014653801918029785
-0.00014865398406982422
-0.00015129148960113525
-0.00015437602996826172
-0.00015786290168762207
-0.00016182661056518555
-0.00016610324382781982
-0.0001706331968307495
-0.00017540156841278076
-0.00018011033535003662
-0.00018478929996490479
-0.00018912553787231445
-0.00019316375255584717
-0.00019656121730804443
-0.0001992732286453247
-0.0002012401819229126
-0.00020222365856170654
-0.00020229816436767578
-0.0002014636993408203
-4.814565181732178e-05
-5.5089592933654785e-05
-6.183981895446777e-05
-6.83516263961792e-05
-7.455050945281982e-05
-8.054077625274658e-05
-8.61138105392456e-05
-9.135901927947998e-05
-9.623169898986816e-05
-0.00010071694850921631
-0.00010494887828826904
-0.00010891258716583252
-0.00011271238327026367
-0.00011639297008514404
-0.0001201331615447998
-0.0001240074634552002
-0.00012814998626708984
-0.00013273954391479492
-0.00013765692710876465
-0.00014303624629974365
-0.0001488029956817627
-0.00015494227409362793
-0.00016136467456817627
-0.0001678764820098877
-0.00017449259757995605
-0.00018101930618286133
-0.00018739700317382812
-0.00019353628158569336
-0.00019945204257965088
-0.00020515918731689453
-0.00021070241928100586
-0.00021617114543914795
-0.0002215653657913208
-0.0002270340919494629
-0.00023259222507476807
-0.0002381354570388794
-0.00024363398551940918
-0.00024890899658203125
-0.00025394558906555176
-0.00025844573974609375
-0.0002623647451400757
-0.000265464186668396
-0.0002676248550415039
-0.00026866793632507324
-0.0002687424421310425
-0.00026769936084747314
-0.00026556849479675293
-0.00026234984397888184
-0.00025819242000579834
-0.00025312602519989014
-0.00024734437465667725
-0.00024087727069854736
-0.0002339482307434082
-0.00022681057453155518
-0.00021946430206298828
-0.00021213293075561523
-0.00020493566989898682
-0.0001979917287826538
-0.00019134581089019775
-0.00018510222434997559
-0.00017930567264556885
-0.00017392635345458984
-0.00016900897026062012
-0.00016458332538604736
-0.00016063451766967773
-0.00015722215175628662
-0.0001542419195175171
-0.00015169382095336914
-0.00014963746070861816
-0.00014790892601013184
-0.00014653801918029785
-0.0001455247402191162
-0.0001448988914489746
-0.00014451146125793457
-0.0001443326473236084
-0.00014446675777435303
-0.00014474987983703613
-0.00014534592628479004
-0.0001461505889892578
-0.00014719367027282715
-0.00014857947826385498
-0.00015024840831756592
-0.00015234947204589844
-0.00015482306480407715
-0.00015777349472045898
-0.000161096453666687
-0.00016486644744873047
-0.0001690387725830078
-0.00017352402210235596
-0.00017815828323364258
-0.00018295645713806152
-0.0001876354217529297
-0.00019210577011108398
-0.00019615888595581055
-0.0001996755599975586
-0.0002025812864303589
-0.00020456314086914062
-0.0002057105302810669
-0.00020584464073181152
-0.00020493566989898682
-4.713237285614014e-05
-5.340576171875e-05
-5.9545040130615234e-05
-6.546080112457275e-05
-7.11977481842041e-05
-7.66366720199585e-05
-8.179247379302979e-05
-8.666515350341797e-05
-9.116530418395996e-05
-9.53972339630127e-05
-9.930133819580078e-05
-0.0001030266284942627
-0.00010660290718078613
-0.00011014938354492188
-0.00011369585990905762
-0.00011740624904632568
-0.0001214742660522461
-0.00012587010860443115
-0.00013080239295959473
-0.00013618171215057373
-0.00014197826385498047
-0.00014813244342803955
-0.00015462934970855713
-0.00016130506992340088
-0.00016798079013824463
-0.00017464160919189453
-0.00018112361431121826
-0.00018733739852905273
-0.0001933276653289795
-0.00019912421703338623
-0.00020475685596466064
-0.00021034479141235352
-0.00021594762802124023
-0.0002215951681137085
-0.00022743642330169678
-0.0002333223819732666
-0.00023925304412841797
-0.0002451092004776001
-0.0002506822347640991
-0.0002557337284088135
-0.0002601742744445801
-0.0002637505531311035
-0.000266343355178833
-0.0002678781747817993
-0.00026826560497283936
-0.0002674311399459839
-0.00026547908782958984
-0.0002623945474624634
-0.00025825202465057373
-0.00025306642055511475
-0.0002471655607223511
-0.00024050474166870117
-0.0002333223819732666
-0.00022585690021514893
-0.00021821260452270508
-0.00021055340766906738
-0.00020307302474975586
-0.0001958608627319336
-0.00018899142742156982
-0.00018255412578582764
-0.00017663836479187012
-0.00017115473747253418
-0.0001662522554397583
-0.00016188621520996094
-0.0001580268144607544
-0.00015479326248168945
-0.00015197694301605225
-0.0001497715711593628
-0.00014796853065490723
-0.00014670193195343018
-0.000145837664604187
-0.00014534592628479004
-0.00014506280422210693
-0.00014513731002807617
-0.00014550983905792236
-0.00014600157737731934
-0.00014673173427581787
-0.00014759600162506104
-0.00014868378639221191
-0.00014992058277130127
-0.0001513957977294922
-0.00015316903591156006
-0.00015522539615631104
-0.0001576840877532959
-0.00016051530838012695
-0.0001637786626815796
-0.00016742944717407227
-0.00017154216766357422
-0.00017599761486053467
-0.00018072128295898438
-0.00018548965454101562
-0.00019025802612304688
-0.00019487738609313965
-0.00019912421703338623
-0.000202864408493042
-0.00020582973957061768
-0.00020794570446014404
-0.0002091526985168457
-0.00020933151245117188
-0.00020843744277954102
-4.564225673675537e-05
-5.137920379638672e-05
-5.696713924407959e-05
-6.236135959625244e-05
-6.754696369171143e-05
-7.253885269165039e-05
-7.727742195129395e-05
-8.185207843780518e-05
-8.603930473327637e-05
-8.9988112449646e-05
-9.368360042572021e-05
-9.715557098388672e-05
-0.00010056793689727783
-0.00010387599468231201
-0.00010730326175689697
-0.00011083483695983887
-0.00011481344699859619
-0.00011914968490600586
-0.0001239776611328125
-0.00012926757335662842
-0.00013509392738342285
-0.00014126300811767578
-0.0001478642225265503
-0.00015458464622497559
-0.0001614093780517578
-0.00016805529594421387
-0.00017465651035308838
-0.00018095970153808594
-0.00018699467182159424
-0.00019291043281555176
-0.0001986175775527954
-0.00020429491996765137
-0.00021010637283325195
-0.00021606683731079102
-0.00022226572036743164
-0.0002285689115524292
-0.00023508071899414062
-0.0002415180206298828
-0.00024768710136413574
-0.0002533942461013794
-0.0002584010362625122
-0.00026251375675201416
-0.0002655982971191406
-0.00026747584342956543
-0.0002681463956832886
-0.00026752054691314697
-0.00026567280292510986
-0.00026260316371917725
-0.00025841593742370605
-0.00025312602519989014
-0.0002470165491104126
-0.00024010241031646729
-0.00023257732391357422
-0.00022467970848083496
-0.00021666288375854492
-0.00020857155323028564
-0.00020065903663635254
-0.00019302964210510254
-0.00018574297428131104
-0.00017896294593811035
-0.00017270445823669434
-0.00016701221466064453
-0.00016193091869354248
-0.00015746057033538818
-0.0001536160707473755
-0.0001503974199295044
-0.00014784932136535645
-0.0001458674669265747
-0.00014448165893554688
-0.00014357268810272217
-0.00014312565326690674
-0.00014309585094451904
-0.00014346837997436523
-0.00014406442642211914
-0.00014491379261016846
-0.00014601647853851318
-0.00014719367027282715
-0.00014853477478027344
-0.00014993548393249512
-0.00015150010585784912
-0.00015319883823394775
-0.00015513598918914795
-0.00015720725059509277
-0.00015969574451446533
-0.00016254186630249023
-0.00016574561595916748
-0.00016939640045166016
-0.0001735091209411621
-0.00017793476581573486
-0.0001827031373977661
-0.00018759071826934814
-0.00019253790378570557
-0.0001973658800125122
-0.00020182132720947266
-0.00020575523376464844
-0.00020891427993774414
-0.00021128356456756592
-0.0002125948667526245
-0.00021281838417053223
-0.00021195411682128906
-4.379451274871826e-05
-4.8980116844177246e-05
-5.410611629486084e-05
-5.8963894844055176e-05
-6.371736526489258e-05
-6.824731826782227e-05
-7.265806198120117e-05
-7.690489292144775e-05
-8.085370063781738e-05
-8.453428745269775e-05
-8.80807638168335e-05
-9.137392044067383e-05
-9.453296661376953e-05
-9.775161743164062e-05
-0.00010097026824951172
-0.00010441243648529053
-0.00010818243026733398
-0.00011242926120758057
-0.00011718273162841797
-0.0001224428415298462
-0.00012823939323425293
-0.0001345127820968628
-0.00014109909534454346
-0.00014787912368774414
-0.00015482306480407715
-0.00016161799430847168
-0.00016826391220092773
-0.00017461180686950684
-0.00018076598644256592
-0.00018674135208129883
-0.00019255280494689941
-0.00019843876361846924
-0.00020444393157958984
-0.0002107471227645874
-0.00021731853485107422
-0.0002241581678390503
-0.00023132562637329102
-0.00023843348026275635
-0.00024534761905670166
-0.00025172531604766846
-0.00025738775730133057
-0.00026203691959381104
-0.00026550889015197754