# vtk DataFile Version 3.0
2D PINN Solution
ASCII
DATASET STRUCTURED_GRID
DIMENSIONS 100 100 1
POINTS 10000 float
-1.0 -1.0 0.0
-0.9797979797979798 -1.0 0.0
-0.9595959595959596 -1.0 0.0
-0.9393939393939394 -1.0 0.0
-0.9191919191919192 -1.0 0.0
-0.898989898989899 -1.0 0.0
-0.8787878787878788 -1.0 0.0
-0.8585858585858586 -1.0 0.0
-0.8383838383838383 -1.0 0.0
-0.8181818181818181 -1.0 0.0
-0.797979797979798 -1.0 0.0
-0.7777777777777778 -1.0 0.0
-0.7575757575757576 -1.0 0.0
-0.7373737373737373 -1.0 0.0
-0.7171717171717171 -1.0 0.0
-0.696969696969697 -1.0 0.0
-0.6767676767676767 -1.0 0.0
-0.6565656565656566 -1.0 0.0
-0.6363636363636364 -1.0 0.0
-0.6161616161616161 -1.0 0.0
-0.5959595959595959 -1.0 0.0
-0.5757575757575757 -1.0 0.0
-0.5555555555555556 -1.0 0.0
-0.5353535353535352 -1.0 0.0
-0.5151515151515151 -1.0 0.0
-0.4949494949494949 -1.0 0.0
-0.4747474747474747 -1.0 0.0
-0.4545454545454545 -1.0 0.0
-0.43434343434343425 -1.0 0.0
-0.41414141414141414 -1.0 0.0
-0.3939393939393939 -1.0 0.0
-0.3737373737373737 -1.0 0.0
-0.3535353535353535 -1.0 0.0
-0.33333333333333326 -1.0 0.0
-0.31313131313131304 -1.0 0.0
-0.2929292929292928 -1.0 0.0
-0.2727272727272727 -1.0 0.0
-0.2525252525252525 -1.0 0.0
-0.23232323232323226 -1.0 0.0
-0.21212121212121204 -1.0 0.0
-0.19191919191919182 -1.0 0.0
-0.1717171717171716 -1.0 0.0
-0.1515151515151515 -1.0 0.0
-0.13131313131313127 -1.0 0.0
-0.11111111111111105 -1.0 0.0
-0.09090909090909083 -1.0 0.0
-0.07070707070707061 -1.0 0.0
-0.050505050505050386 -1.0 0.0
-0.030303030303030276 -1.0 0.0
-0.010101010101010055 -1.0 0.0
0.010101010101010166 -1.0 0.0
0.030303030303030498 -1.0 0.0
0.05050505050505061 -1.0 0.0
0.07070707070707072 -1.0 0.0
0.09090909090909105 -1.0 0.0
0.11111111111111116 -1.0 0.0
0.1313131313131315 -1.0 0.0
0.1515151515151516 -1.0 0.0
0.1717171717171717 -1.0 0.0
0.19191919191919204 -1.0 0.0
0.21212121212121215 -1.0 0.0
0.2323232323232325 -1.0 0.0
0.2525252525252526 -1.0 0.0
0.27272727272727293 -1.0 0.0
0.29292929292929304 -1.0 0.0
0.31313131313131315 -1.0 0.0
0.3333333333333335 -1.0 0.0
0.3535353535353536 -1.0 0.0
0.3737373737373739 -1.0 0.0
0.39393939393939403 -1.0 0.0
0.41414141414141437 -1.0 0.0
0.4343434343434345 -1.0 0.0
0.4545454545454546 -1.0 0.0
0.4747474747474749 -1.0 0.0
0.49494949494949503 -1.0 0.0
0.5151515151515154 -1.0 0.0
0.5353535353535355 -1.0 0.0
0.5555555555555556 -1.0 0.0
0.5757575757575759 -1.0 0.0
0.595959595959596 -1.0 0.0
0.6161616161616164 -1.0 0.0
0.6363636363636365 -1.0 0.0
0.6565656565656568 -1.0 0.0
0.6767676767676769 -1.0 0.0
0.696969696969697 -1.0 0.0
0.7171717171717173 -1.0 0.0
0.7373737373737375 -1.0 0.0
0.7575757575757578 -1.0 0.0
0.7777777777777779 -1.0 0.0
0.7979797979797982 -1.0 0.0
0.8181818181818183 -1.0 0.0
0.8383838383838385 -1.0 0.0
0.8585858585858588 -1.0 0.0
0.8787878787878789 -1.0 0.0
0.8989898989898992 -1.0 0.0
0.9191919191919193 -1.0 0.0
0.9393939393939394 -1.0 0.0
0.9595959595959598 -1.0 0.0
0.9797979797979799 -1.0 0.0
1.0 -1.0 0.0
-1.0 -0.9797979797979798 0.0
-0.9797979797979798 -0.9797979797979798 0.0
-0.9595959595959596 -0.9797979797979798 0.0
-0.9393939393939394 -0.9797979797979798 0.0
-0.9191919191919192 -0.9797979797979798 0.0
-0.898989898989899 -0.9797979797979798 0.0
-0.8787878787878788 -0.9797979797979798 0.0
-0.8585858585858586 -0.9797979797979798 0.0
-0.8383838383838383 -0.9797979797979798 0.0
-0.8181818181818181 -0.9797979797979798 0.0
-0.797979797979798 -0.9797979797979798 0.0
-0.7777777777777778 -0.9797979797979798 0.0
-0.7575757575757576 -0.9797979797979798 0.0
-0.7373737373737373 -0.9797979797979798 0.0
-0.7171717171717171 -0.9797979797979798 0.0
-0.696969696969697 -0.9797979797979798 0.0
-0.6767676767676767 -0.9797979797979798 0.0
-0.6565656565656566 -0.9797979797979798 0.0
-0.6363636363636364 -0.9797979797979798 0.0
-0.6161616161616161 -0.9797979797979798 0.0
-0.5959595959595959 -0.9797979797979798 0.0
-0.5757575757575757 -0.9797979797979798 0.0
-0.5555555555555556 -0.9797979797979798 0.0
-0.5353535353535352 -0.9797979797979798 0.0
-0.5151515151515151 -0.9797979797979798 0.0
-0.4949494949494949 -0.9797979797979798 0.0
-0.4747474747474747 -0.9797979797979798 0.0
-0.4545454545454545 -0.9797979797979798 0.0
-0.43434343434343425 -0.9797979797979798 0.0
-0.41414141414141414 -0.9797979797979798 0.0
-0.3939393939393939 -0.9797979797979798 0.0
-0.3737373737373737 -0.9797979797979798 0.0
-0.3535353535353535 -0.9797979797979798 0.0
-0.33333333333333326 -0.9797979797979798 0.0
-0.31313131313131304 -0.9797979797979798 0.0
-0.2929292929292928 -0.9797979797979798 0.0
-0.2727272727272727 -0.9797979797979798 0.0
-0.2525252525252525 -0.9797979797979798 0.0
-0.23232323232323226 -0.9797979797979798 0.0
-0.21212121212121204 -0.9797979797979798 0.0
-0.19191919191919182 -0.9797979797979798 0.0
-0.1717171717171716 -0.9797979797979798 0.0
-0.1515151515151515 -0.9797979797979798 0.0
-0.13131313131313127 -0.9797979797979798 0.0
-0.11111111111111105 -0.9797979797979798 0.0
-0.09090909090909083 -0.9797979797979798 0.0
-0.07070707070707061 -0.9797979797979798 0.0
-0.050505050505050386 -0.9797979797979798 0.0
-0.030303030303030276 -0.9797979797979798 0.0
-0.010101010101010055 -0.9797979797979798 0.0
0.010101010101010166 -0.9797979797979798 0.0
0.030303030303030498 -0.9797979797979798 0.0
0.05050505050505061 -0.9797979797979798 0.0
0.07070707070707072 -0.9797979797979798 0.0
0.09090909090909105 -0.9797979797979798 0.0
0.11111111111111116 -0.9797979797979798 0.0
0.1313131313131315 -0.9797979797979798 0.0
0.1515151515151516 -0.9797979797979798 0.0
0.1717171717171717 -0.9797979797979798 0.0
0.19191919191919204 -0.9797979797979798 0.0
0.21212121212121215 -0.9797979797979798 0.0
0.2323232323232325 -0.9797979797979798 0.0
0.2525252525252526 -0.9797979797979798 0.0
0.27272727272727293 -0.9797979797979798 0.0
0.29292929292929304 -0.9797979797979798 0.0
0.31313131313131315 -0.9797979797979798 0.0
0.3333333333333335 -0.9797979797979798 0.0
0.3535353535353536 -0.9797979797979798 0.0
0.3737373737373739 -0.9797979797979798 0.0
0.39393939393939403 -0.9797979797979798 0.0
0.41414141414141437 -0.9797979797979798 0.0
0.4343434343434345 -0.9797979797979798 0.0
0.4545454545454546 -0.9797979797979798 0.0
0.4747474747474749 -0.9797979797979798 0.0
0.49494949494949503 -0.9797979797979798 0.0
0.5151515151515154 -0.9797979797979798 0.0
0.5353535353535355 -0.9797979797979798 0.0
0.5555555555555556 -0.9797979797979798 0.0
0.5757575757575759 -0.9797979797979798 0.0
0.595959595959596 -0.9797979797979798 0.0
0.6161616161616164 -0.9797979797979798 0.0
0.6363636363636365 -0.9797979797979798 0.0
0.6565656565656568 -0.9797979797979798 0.0
0.6767676767676769 -0.9797979797979798 0.0
0.696969696969697 -0.9797979797979798 0.0
0.7171717171717173 -0.9797979797979798 0.0
0.7373737373737375 -0.9797979797979798 0.0
0.7575757575757578 -0.9797979797979798 0.0
0.7777777777777779 -0.9797979797979798 0.0
0.7979797979797982 -0.9797979797979798 0.0
0.8181818181818183 -0.9797979797979798 0.0
0.8383838383838385 -0.9797979797979798 0.0
0.8585858585858588 -0.9797979797979798 0.0
0.8787878787878789 -0.9797979797979798 0.0
0.8989898989898992 -0.9797979797979798 0.0
0.9191919191919193 -0.9797979797979798 0.0
0.9393939393939394 -0.9797979797979798 0.0
0.9595959595959598 -0.9797979797979798 0.0
0.9797979797979799 -0.9797979797979798 0.0
1.0 -0.9797979797979798 0.0
-1.0 -0.9595959595959596 0.0
-0.9797979797979798 -0.9595959595959596 0.0
-0.9595959595959596 -0.9595959595959596 0.0
-0.9393939393939394 -0.9595959595959596 0.0
-0.9191919191919192 -0.9595959595959596 0.0
-0.898989898989899 -0.9595959595959596 0.0
-0.8787878787878788 -0.9595959595959596 0.0
-0.8585858585858586 -0.9595959595959596 0.0
-0.8383838383838383 -0.9595959595959596 0.0
-0.8181818181818181 -0.9595959595959596 0.0
-0.797979797979798 -0.9595959595959596 0.0
-0.7777777777777778 -0.9595959595959596 0.0
-0.7575757575757576 -0.9595959595959596 0.0
-0.7373737373737373 -0.9595959595959596 0.0
-0.7171717171717171 -0.9595959595959596 0.0
-0.696969696969697 -0.9595959595959596 0.0
-0.6767676767676767 -0.9595959595959596 0.0
-0.6565656565656566 -0.9595959595959596 0.0
-0.6363636363636364 -0.9595959595959596 0.0
-0.6161616161616161 -0.9595959595959596 0.0
-0.5959595959595959 -0.9595959595959596 0.0
-0.5757575757575757 -0.9595959595959596 0.0
-0.5555555555555556 -0.9595959595959596 0.0
-0.5353535353535352 -0.9595959595959596 0.0
-0.5151515151515151 -0.9595959595959596 0.0
-0.4949494949494949 -0.9595959595959596 0.0
-0.4747474747474747 -0.9595959595959596 0.0
-0.4545454545454545 -0.9595959595959596 0.0
-0.43434343434343425 -0.9595959595959596 0.0
-0.41414141414141414 -0.9595959595959596 0.0
-0.3939393939393939 -0.9595959595959596 0.0
-0.3737373737373737 -0.9595959595959596 0.0
-0.3535353535353535 -0.9595959595959596 0.0
-0.33333333333333326 -0.9595959595959596 0.0
-0.31313131313131304 -0.9595959595959596 0.0
-0.2929292929292928 -0.9595959595959596 0.0
-0.2727272727272727 -0.9595959595959596 0.0
-0.2525252525252525 -0.9595959595959596 0.0
-0.23232323232323226 -0.9595959595959596 0.0
-0.21212121212121204 -0.9595959595959596 0.0
-0.19191919191919182 -0.9595959595959596 0.0
-0.1717171717171716 -0.9595959595959596 0.0
-0.1515151515151515 -0.9595959595959596 0.0
-0.13131313131313127 -0.9595959595959596 0.0
-0.11111111111111105 -0.9595959595959596 0.0
-0.09090909090909083 -0.9595959595959596 0.0
-0.07070707070707061 -0.9595959595959596 0.0
-0.050505050505050386 -0.9595959595959596 0.0
-0.030303030303030276 -0.9595959595959596 0.0
-0.010101010101010055 -0.9595959595959596 0.0
0.010101010101010166 -0.9595959595959596 0.0
0.030303030303030498 -0.9595959595959596 0.0
0.05050505050505061 -0.9595959595959596 0.0
0.07070707070707072 -0.9595959595959596 0.0
0.09090909090909105 -0.9595959595959596 0.0
0.11111111111111116 -0.9595959595959596 0.0
0.1313131313131315 -0.9595959595959596 0.0
0.1515151515151516 -0.9595959595959596 0.0
0.1717171717171717 -0.9595959595959596 0.0
0.19191919191919204 -0.9595959595959596 0.0
0.21212121212121215 -0.9595959595959596 0.0
[...]
POINT_DATA 10000
SCALARS u float 1
LOOKUP_TABLE default
-0.00011552870273590088
-0.0001265406608581543
-0.00013700127601623535
-0.0001466125249862671
-0.00015556812286376953
-0.000164031982421875
-0.0001722276210784912
-0.00018030405044555664
-0.00018839538097381592
-0.00019668042659759521
-0.00020517408847808838
-0.0002138763666152954
-0.000222817063331604
-0.00023177266120910645
-0.00024062395095825195
-0.0002492070198059082
-0.00025738775730133057
-0.0002648979425430298
-0.0002716481685638428
-0.0002774745225906372
-0.00028215348720550537
-0.0002856403589248657
-0.0002879202365875244
-0.00028893351554870605
-0.0002888590097427368
-0.00028756260871887207
-0.0002853274345397949
-0.0002821981906890869
-0.0002783834934234619
-0.0002738833427429199
-0.0002688169479370117
-0.0002633780241012573
-0.0002574920654296875
-0.00025138258934020996
-0.00024506449699401855
-0.00023859739303588867
-0.00023202598094940186
-0.0002254396677017212
-0.00021889805793762207
-0.00021229684352874756
-0.00020577013492584229
-0.0001993328332901001
-0.00019285082817077637
-0.00018644332885742188
-0.00018005073070526123
-0.00017355382442474365
-0.00016711652278900146
-0.00016064941883087158
-0.00015425682067871094
-0.000147894024848938
-0.00014168024063110352
-0.00013563036918640137
-0.00012999773025512695
-0.0001246929168701172
-0.00011986494064331055
-0.00011573731899261475
-0.00011226534843444824
-0.00010952353477478027
-0.00010752677917480469
-0.00010620057582855225
-0.00010563433170318604
-0.00010557472705841064
-0.00010594725608825684
-0.00010672211647033691
-0.00010767579078674316
-0.00010879337787628174
-0.00010985136032104492
-0.00011083483695983887
-0.00011169910430908203
-0.00011247396469116211
-0.00011308491230010986
-0.00011353194713592529
-0.00011394917964935303
-0.00011427700519561768
-0.00011458992958068848
-0.00011484324932098389
-0.0001150667667388916
-0.00011523067951202393
-0.00011545419692993164
-0.00011557340621948242
-0.00011561810970306396
-0.00011561810970306396
-0.00011557340621948242
-0.00011539459228515625
-0.00011523067951202393
-0.00011515617370605469
-0.00011502206325531006
-0.00011511147022247314
-0.00011532008647918701
-0.00011590123176574707
-0.00011675059795379639
-0.00011819601058959961
-0.00012004375457763672
-0.00012245774269104004
-0.00012549757957458496
-0.00012916326522827148
-0.00013336539268493652
-0.00013811886310577393
-0.0001433342695236206
-0.00014896690845489502
-0.00012536346912384033
-0.00013655424118041992
-0.0001468658447265625
-0.00015623867511749268
-0.00016485154628753662
-0.00017283856868743896
-0.00018040835857391357
-0.0001878291368484497
-0.000195235013961792
-0.00020273029804229736
-0.0002104043960571289
-0.00021827220916748047
-0.00022624433040618896
-0.0002342015504837036
-0.00024211406707763672
-0.00024975836277008057
-0.0002570152282714844
-0.00026376545429229736
-0.0002698153257369995
-0.0002750903367996216
-0.00027945637702941895
-0.0002828240394592285
-0.0002851635217666626
-0.00028640031814575195
-0.00028662383556365967
-0.0002858191728591919
-0.000284045934677124
-0.00028139352798461914
-0.0002778768539428711
-0.0002737194299697876
-0.0002688467502593994
-0.0002634376287460327
-0.0002575516700744629
-0.0002512931823730469
-0.00024469196796417236
-0.00023792684078216553
-0.00023099780082702637
-0.00022405385971069336
-0.00021710991859436035
-0.0002101212739944458
-0.00020322203636169434
-0.00019632279872894287
-0.0001894533634185791
-0.00018265843391418457
-0.0001758188009262085
-0.00016897916793823242
-0.0001621246337890625
-0.00015522539615631104
-0.00014844536781311035
-0.00014165043830871582
-0.00013495981693267822
-0.00012852251529693604
-0.0001223832368850708
-0.00011664628982543945
-0.00011150538921356201
-0.00010699033737182617
-0.00010332465171813965
-0.00010029971599578857
-9.822845458984375e-05
-9.694695472717285e-05
-9.645521640777588e-05
-9.655952453613281e-05
-9.725987911224365e-05
-9.827315807342529e-05
-9.958446025848389e-05
-0.00010102987289428711
-0.00010235607624053955
-0.0001036524772644043
-0.00010468065738677979
-0.00010560452938079834
-0.00010630488395690918
-0.0001068413257598877
-0.00010718405246734619
-0.00010749697685241699
-0.00010770559310913086
-0.00010782480239868164
-0.00010801851749420166
-0.0001081228256225586
-0.00010816752910614014
-0.00010818243026733398
-0.00010810792446136475
-0.00010795891284942627
-0.00010766088962554932
-0.00010737776756286621
-0.00010691583156585693
-0.00010645389556884766
-0.00010597705841064453
-0.00010557472705841064
-0.00010536611080169678
-0.00010538101196289062
-0.00010569393634796143
-0.00010648369789123535
-0.0001077800989151001
-0.00010970234870910645
-0.000112190842628479
-0.00011543929576873779
-0.00011938810348510742
-0.0001240074634552002
-0.0001293271780014038
-0.00013515353202819824
-0.00013512372970581055
-0.00014632940292358398
-0.0001563727855682373
-0.00016535818576812744
-0.00017343461513519287
-0.00018076598644256592
-0.00018768012523651123
-0.00019434094429016113
-0.0002008676528930664
-0.00020746886730194092
-0.0002141892910003662
-0.00022107362747192383
-0.00022809207439422607
-0.00023512542247772217
-0.00024211406707763672
-0.00024884939193725586
-0.00025531649589538574
-0.0002614259719848633
-0.0002669990062713623
-0.0002718716859817505
-0.0002761036157608032
-0.00027948617935180664
-0.0002820342779159546
-0.0002835690975189209
-0.00028420984745025635
-0.0002838820219039917
-0.0002826303243637085
-0.00028039515018463135
-0.0002772510051727295
-0.0002734065055847168
-0.00026872754096984863
-0.0002633631229400635
-0.00025750696659088135
-0.00025103986263275146
-0.0002442598342895508
-0.0002371668815612793
-0.00022993981838226318
-0.00022263824939727783
-0.0002152770757675171
-0.0002079606056213379
-0.00020065903663635254
-0.00019340217113494873
-0.00018616020679473877
-0.0001790076494216919
-0.00017181038856506348
-0.00016458332538604736
-0.00015735626220703125
-0.0001501142978668213
-0.00014287233352661133
-0.0001356750726699829
-0.00012862682342529297
-0.00012169778347015381
-0.00011514127254486084
-0.00010907649993896484
-0.00010350346565246582
-9.866058826446533e-05
-9.462237358093262e-05
-9.1552734375e-05
-8.9302659034729e-05
-8.80807638168335e-05
-8.761882781982422e-05
-8.797645568847656e-05
-8.894503116607666e-05
-9.03010368347168e-05
-9.194016456604004e-05
-9.37432050704956e-05
-9.541213512420654e-05
-9.69916582107544e-05
-9.831786155700684e-05
-9.940564632415771e-05
-0.00010018050670623779
-0.00010070204734802246
-0.00010107457637786865
-0.00010129809379577637
-0.00010141730308532715
-0.00010147690773010254
-0.00010146200656890869
-0.00010144710540771484
-0.00010144710540771484
-0.00010135769844055176
-0.00010117888450622559
-0.00010091066360473633
-0.00010050833225250244
-0.00010001659393310547
-9.937584400177002e-05
-9.866058826446533e-05
-9.78708267211914e-05
-9.705126285552979e-05
-9.641051292419434e-05
-9.588897228240967e-05
-9.56505537033081e-05
-9.576976299285889e-05
-9.644031524658203e-05
-9.766221046447754e-05
-9.962916374206543e-05
-0.00010231137275695801
-0.00010579824447631836
-0.00011004507541656494
-0.00011518597602844238
-0.00012098252773284912
-0.00014446675777435303
-0.0001554936170578003
-0.00016513466835021973
-0.0001736283302307129
-0.00018107891082763672
-0.000187799334526062
-0.00019393861293792725
-0.00019972026348114014
-0.0002053678035736084
-0.00021101534366607666
-0.000216752290725708
-0.00022266805171966553
-0.00022871792316436768
-0.00023476779460906982
-0.00024081766605377197
-0.0002468228340148926
-0.0002525895833969116
-0.0002582073211669922
-0.0002633333206176758
-0.00026807188987731934
-0.00027222931385040283
-0.0002757608890533447
-0.00027851760387420654
-0.0002804696559906006
-0.00028155744075775146
-0.00028173625469207764
-0.0002809464931488037
-0.0002792179584503174
-0.00027652084827423096
-0.0002729445695877075
-0.00026848912239074707
-0.0002631843090057373
-0.00025722384452819824
-0.0002506822347640991
-0.00024372339248657227
-0.00023637712001800537
-0.00022883713245391846
-0.0002211928367614746
-0.00021353363990783691
-0.00020579993724822998
-0.00019820034503936768
-0.00019061565399169922
-0.00018301606178283691
-0.00017555058002471924
-0.00016798079013824463
-0.00016048550605773926
-0.00015294551849365234
-0.0001453310251235962
-0.00013774633407592773
-0.00013014674186706543
-0.0001226663589477539
-0.00011539459228515625
-0.00010836124420166016
-0.00010190904140472412
-9.593367576599121e-05
-9.079277515411377e-05
-8.651614189147949e-05
-8.313357830047607e-05
-8.083879947662354e-05
-7.958710193634033e-05
-7.925927639007568e-05
-7.98255205154419e-05
-8.10772180557251e-05
-8.279085159301758e-05
-8.48621129989624e-05
-8.700788021087646e-05
-8.907914161682129e-05
-9.094178676605225e-05
-9.253621101379395e-05
-9.3802809715271e-05
-9.468197822570801e-05
-9.523332118988037e-05
-9.554624557495117e-05
-9.56803560256958e-05
-9.569525718688965e-05
-9.563565254211426e-05
-9.557604789733887e-05
-9.541213512420654e-05
-9.524822235107422e-05
-9.50247049331665e-05
-9.475648403167725e-05
-9.444355964660645e-05
-9.392201900482178e-05
-9.332597255706787e-05
-9.25213098526001e-05
-9.159743785858154e-05
-9.053945541381836e-05
-8.942186832427979e-05
-8.834898471832275e-05
-8.73953104019165e-05
-8.660554885864258e-05
-8.61436128616333e-05
-8.615851402282715e-05
-8.672475814819336e-05
-8.800625801086426e-05
-9.000301361083984e-05
-9.292364120483398e-05
-9.669363498687744e-05
-0.00010141730308532715
-0.00010691583156585693
-0.0001532435417175293
-0.00016382336616516113
-0.00017303228378295898
-0.0001809448003768921
-0.00018781423568725586
-0.00019377470016479492
-0.00019913911819458008
-0.0002040565013885498
-0.0002087801694869995
-0.00021348893642425537
-0.00021824240684509277
-0.0002231001853942871
-0.0002281665802001953
-0.00023339688777923584
-0.00023861229419708252
-0.00024384260177612305
-0.0002490878105163574
-0.00025425851345062256
-0.00025916099548339844
-0.0002637505531311035
-0.0002679973840713501
-0.00027173757553100586
-0.00027483701705932617
-0.00027723610401153564
-0.0002788156270980835
-0.00027951598167419434
-0.00027917325496673584
-0.0002779364585876465
-0.00027558207511901855
-0.00027230381965637207
-0.00026801228523254395
-0.00026285648345947266
-0.00025691092014312744
-0.0002502948045730591
-0.00024312734603881836
-0.0002356022596359253
-0.00022777915000915527
-0.00021983683109283447
-0.00021183490753173828
-0.0002038031816482544
-0.00019581615924835205
-0.0001878887414932251
-0.00018006563186645508
-0.0001722574234008789
-0.00016447901725769043
-0.00015664100646972656
-0.00014878809452056885
-0.0001408904790878296
-0.00013297796249389648
-0.00012508034706115723
-0.00011719763278961182
-0.00010955333709716797
-0.00010222196578979492
-9.526312351226807e-05
-8.894503116607666e-05
-8.341670036315918e-05
-7.87973403930664e-05
-7.528066635131836e-05
-7.280707359313965e-05
-7.155537605285645e-05
-7.134675979614258e-05
-7.209181785583496e-05
-7.361173629760742e-05
-7.574260234832764e-05
-7.818639278411865e-05
-8.079409599304199e-05
-8.325278759002686e-05
-8.547306060791016e-05
-8.733570575714111e-05
-8.879601955413818e-05
-8.974969387054443e-05
-9.036064147949219e-05
-9.065866470336914e-05
-9.070336818695068e-05
-9.056925773620605e-05
-9.039044380187988e-05
-9.007751941680908e-05
-8.979439735412598e-05
-8.949637413024902e-05
-8.921325206756592e-05
-8.888542652130127e-05
-8.83936882019043e-05
-8.784234523773193e-05
-8.709728717803955e-05
-8.623301982879639e-05
-8.518993854522705e-05
-8.393824100494385e-05
-8.262693881988525e-05
-8.125603199005127e-05
-7.985532283782959e-05
-7.867813110351562e-05
-7.772445678710938e-05
-7.711350917816162e-05
-7.702410221099854e-05
-7.756054401397705e-05
-7.88569450378418e-05
-8.10772180557251e-05
-8.422136306762695e-05
-8.831918239593506e-05
-9.34600830078125e-05
-0.0001612156629562378
-0.00017133355140686035
-0.00017996132373809814
-0.0001872926950454712
-0.00019347667694091797
-0.0001987367868423462
-0.0002033710479736328
-0.00020745396614074707
-0.0002113133668899536
-0.00021502375602722168
-0.00021886825561523438
-0.00022277235984802246
-0.00022692978382110596
-0.00023123621940612793
-0.00023576617240905762
-0.00024037063121795654
-0.00024509429931640625
-0.00024987757205963135
-0.00025460124015808105
-0.0002592504024505615
-0.0002635568380355835
-0.0002675354480743408
-0.0002709925174713135
-0.0002738088369369507
-0.00027592480182647705
-0.00027711689472198486
-0.0002773553133010864
-0.00027649104595184326
-0.00027461349964141846
-0.0002716332674026489
-0.0002675354480743408
-0.0002624988555908203
-0.00025656819343566895
-0.0002498626708984375
-0.0002425462007522583
-0.00023481249809265137
-0.0002267211675643921
-0.00021845102310180664
-0.00021013617515563965
-0.00020182132720947266
-0.0001936107873916626
-0.00018537044525146484
-0.00017720460891723633
-0.00016917288303375244
-0.0001611262559890747
-0.00015307962894439697
-0.00014494359493255615
-0.00013677775859832764
-0.0001286715269088745
-0.00012040138244628906
-0.00011228024959564209
-0.0001042783260345459
-9.652972221374512e-05
-8.927285671234131e-05
-8.258223533630371e-05
-7.665157318115234e-05
-7.173418998718262e-05
-6.788969039916992e-05
-6.534159183502197e-05
-6.397068500518799e-05
-6.38812780380249e-05
-6.474554538726807e-05
-6.662309169769287e-05
-6.905198097229004e-05
-7.200241088867188e-05
-7.499754428863525e-05
-7.794797420501709e-05
-8.055567741394043e-05
-8.276104927062988e-05
-8.435547351837158e-05
-8.542835712432861e-05
-8.61138105392456e-05
-8.630752563476562e-05
-8.623301982879639e-05
-8.597970008850098e-05
-8.556246757507324e-05
-8.511543273925781e-05
-8.462369441986084e-05
-8.419156074523926e-05
-8.377432823181152e-05
-8.328258991241455e-05
-8.276104927062988e-05
-8.216500282287598e-05
-8.13603401184082e-05
-8.04513692855835e-05
-7.930397987365723e-05
-7.790327072143555e-05
-7.648766040802002e-05
-7.489323616027832e-05
-7.329881191253662e-05
-7.173418998718262e-05
-7.030367851257324e-05
-6.923079490661621e-05
-6.854534149169922e-05
-6.847083568572998e-05
-6.903707981109619e-05
-7.051229476928711e-05
-7.297098636627197e-05
-7.642805576324463e-05
-8.098781108856201e-05
-0.00016842782497406006
-0.00017791986465454102
-0.0001859217882156372
-0.00019265711307525635
-0.00019818544387817383
-0.0002028048038482666
-0.000206679105758667
-0.00020998716354370117
-0.00021301209926605225
-0.0002159029245376587
-0.00021883845329284668
-0.0002218186855316162
-0.0002251267433166504
-0.0002285987138748169
-0.00023242831230163574
-0.00023646652698516846
-0.00024078786373138428
-0.0002452433109283447
-0.00024984776973724365
-0.0002544671297073364
-0.00025898218154907227
-0.00026322901248931885
-0.0002670884132385254
-0.0002704113721847534
-0.00027298927307128906
-0.0002746880054473877
-0.0002753734588623047
-0.0002750307321548462
-0.0002735257148742676
-0.00027082860469818115
-0.00026698410511016846
-0.00026203691959381104
-0.00025616586208343506
-0.0002494305372238159
-0.00024200975894927979
-0.0002340376377105713
-0.00022573769092559814
-0.00021719932556152344
-0.0002085864543914795
-0.00020000338554382324
-0.000191420316696167
-0.00018295645713806152
-0.0001745671033859253
-0.00016626715660095215
-0.0001580268144607544
-0.00014975666999816895
-0.00014144182205200195
-0.00013306736946105957
-0.00012473762035369873
-0.00011628866195678711
-0.00010789930820465088
-9.958446025848389e-05
-9.150803089141846e-05
-8.386373519897461e-05
-7.677078247070312e-05
-7.051229476928711e-05
-6.525218486785889e-05
-6.115436553955078e-05
-5.836784839630127e-05
-5.6877732276916504e-05
-5.6743621826171875e-05
-5.7831406593322754e-05
-5.996227264404297e-05
-6.286799907684326e-05
-6.614625453948975e-05
-6.967782974243164e-05
-7.301568984985352e-05
-7.605552673339844e-05
-7.855892181396484e-05
-8.03917646408081e-05
-8.168816566467285e-05
-8.2358717918396e-05
-8.253753185272217e-05
-8.237361907958984e-05
-8.188188076019287e-05
-8.125603199005127e-05
-8.060038089752197e-05
-7.992982864379883e-05
-7.933378219604492e-05
-7.870793342590332e-05
-7.808208465576172e-05
-7.744133472442627e-05
-7.678568363189697e-05
-7.590651512145996e-05
-7.496774196624756e-05
-7.382035255432129e-05
-7.241964340209961e-05
-7.08848237991333e-05
-6.918609142303467e-05
-6.742775440216064e-05
-6.560981273651123e-05
-6.38812780380249e-05
-6.237626075744629e-05
-6.121397018432617e-05
-6.0558319091796875e-05
-6.054341793060303e-05
-6.13480806350708e-05
-6.307661533355713e-05
-6.584823131561279e-05
-6.979703903198242e-05
-0.00017465651035308838
-0.00018353760242462158
-0.00019095838069915771
-0.0001970231533050537
-0.00020200014114379883
-0.00020600855350494385
-0.0002092123031616211
-0.00021187961101531982
-0.00021412968635559082
-0.0002162158489227295
-0.00021828711032867432
-0.00022050738334655762
-0.00022292137145996094
-0.00022581219673156738
-0.0002289116382598877
-0.00023248791694641113
-0.00023631751537322998
-0.00024056434631347656
-0.0002450495958328247
-0.00024972856044769287
-0.0002543926239013672
-0.0002589374780654907
-0.00026322901248931885
-0.0002669394016265869
-0.00026997923851013184
-0.000272214412689209
-0.00027339160442352295
-0.0002734363079071045
-0.00027230381965637207
-0.00026997923851013184
-0.0002663135528564453
-0.0002615302801132202
-0.0002557039260864258
-0.0002489238977432251
-0.0002413243055343628
-0.00023324787616729736
-0.00022476911544799805
-0.00021597743034362793
-0.00020709633827209473
-0.00019824504852294922
-0.00018937885761260986
-0.00018067657947540283
-0.00017204880714416504
-0.00016355514526367188
-0.0001551210880279541
-0.00014668703079223633
-0.0001382678747177124
-0.0001297593116760254
-0.00012125074863433838
-0.00011260807514190674
-0.00010402500629425049
-9.547173976898193e-05
-8.709728717803955e-05
-7.908046245574951e-05
-7.167458534240723e-05
-6.496906280517578e-05
-5.938112735748291e-05
-5.486607551574707e-05
-5.18113374710083e-05
-5.0202012062072754e-05
-5.0008296966552734e-05
-5.130469799041748e-05
-5.364418029785156e-05
-5.684792995452881e-05
-6.064772605895996e-05
-6.459653377532959e-05
-6.845593452453613e-05
-7.191300392150879e-05
-7.481873035430908e-05
-7.69197940826416e-05
-7.839500904083252e-05
-7.911026477813721e-05
-7.925927639007568e-05
-7.893145084381104e-05
-7.826089859008789e-05
-7.744133472442627e-05
-7.656216621398926e-05
-7.565319538116455e-05
-7.477402687072754e-05
-7.398426532745361e-05
-7.320940494537354e-05
-7.24494457244873e-05
-7.165968418121338e-05
-7.082521915435791e-05
-6.979703903198242e-05
-6.861984729766846e-05
-6.724894046783447e-05
-6.568431854248047e-05
-6.394088268280029e-05
-6.210803985595703e-05
-6.0185790061950684e-05
-5.8263540267944336e-05
-5.644559860229492e-05
-5.498528480529785e-05
-5.386769771575928e-05
-5.328655242919922e-05
-5.3495168685913086e-05
-5.459785461425781e-05
-5.672872066497803e-05
-6.000697612762451e-05
-0.0001800060272216797
-0.00018824636936187744
-0.00019502639770507812
-0.0002005845308303833
-0.00020498037338256836
-0.00020845234394073486
-0.0002110898494720459
-0.00021316111087799072
-0.00021475553512573242
-0.0002160966396331787
-0.00021751224994659424
-0.000219002366065979
-0.00022071599960327148
-0.00022277235984802246
-0.0002253800630569458
-0.00022840499877929688
-0.00023195147514343262
-0.00023595988750457764
-0.00024031102657318115
-0.00024506449699401855
-0.00024987757205963135
-0.0002547651529312134
-0.00025935471057891846
-0.00026354193687438965
-0.00026701390743255615
-0.0002697408199310303
-0.00027136504650115967
-0.0002718716859817505
-0.00027111172676086426
-0.00026901066303253174
-0.00026564300060272217
-0.000260964035987854
-0.00025516748428344727
-0.0002484321594238281
-0.00024077296257019043
-0.00023250281810760498
-0.00022377073764801025
-0.00021478533744812012
-0.0002056509256362915
-0.0001964867115020752
-0.00018736720085144043
-0.00017844140529632568
-0.00016960501670837402
-0.00016096234321594238
-0.00015237927436828613
-0.00014385581016540527
-0.00013533234596252441
-0.0001267939805984497
-0.00011815130710601807
-0.00010938942432403564
-0.00010065734386444092