# vtk DataFile Version 3.0
2D PINN Solution
ASCII
DATASET STRUCTURED_GRID
DIMENSIONS 100 100 1
POINTS 10000 float
-1.0 -1.0 0.0
-0.9797979797979798 -1.0 0.0
-0.9595959595959596 -1.0 0.0
-0.9393939393939394 -1.0 0.0
-0.9191919191919192 -1.0 0.0
-0.898989898989899 -1.0 0.0
-0.8787878787878788 -1.0 0.0
-0.8585858585858586 -1.0 0.0
-0.8383838383838383 -1.0 0.0
-0.8181818181818181 -1.0 0.0
-0.797979797979798 -1.0 0.0
-0.7777777777777778 -1.0 0.0
-0.7575757575757576 -1.0 0.0
-0.7373737373737373 -1.0 0.0
-0.7171717171717171 -1.0 0.0
-0.696969696969697 -1.0 0.0
-0.6767676767676767 -1.0 0.0
-0.6565656565656566 -1.0 0.0
-0.6363636363636364 -1.0 0.0
-0.6161616161616161 -1.0 0.0
-0.5959595959595959 -1.0 0.0
-0.5757575757575757 -1.0 0.0
-0.5555555555555556 -1.0 0.0
-0.5353535353535352 -1.0 0.0
-0.5151515151515151 -1.0 0.0
-0.4949494949494949 -1.0 0.0
-0.4747474747474747 -1.0 0.0
-0.4545454545454545 -1.0 0.0
-0.43434343434343425 -1.0 0.0
-0.41414141414141414 -1.0 0.0
-0.3939393939393939 -1.0 0.0
-0.3737373737373737 -1.0 0.0
-0.3535353535353535 -1.0 0.0
-0.33333333333333326 -1.0 0.0
-0.31313131313131304 -1.0 0.0
-0.2929292929292928 -1.0 0.0
-0.2727272727272727 -1.0 0.0
-0.2525252525252525 -1.0 0.0
-0.23232323232323226 -1.0 0.0
-0.21212121212121204 -1.0 0.0
-0.19191919191919182 -1.0 0.0
-0.1717171717171716 -1.0 0.0
-0.1515151515151515 -1.0 0.0
-0.13131313131313127 -1.0 0.0
-0.11111111111111105 -1.0 0.0
-0.09090909090909083 -1.0 0.0
-0.07070707070707061 -1.0 0.0
-0.050505050505050386 -1.0 0.0
-0.030303030303030276 -1.0 0.0
-0.010101010101010055 -1.0 0.0
0.010101010101010166 -1.0 0.0
0.030303030303030498 -1.0 0.0
0.05050505050505061 -1.0 0.0
0.07070707070707072 -1.0 0.0
0.09090909090909105 -1.0 0.0
0.11111111111111116 -1.0 0.0
0.1313131313131315 -1.0 0.0
0.1515151515151516 -1.0 0.0
0.1717171717171717 -1.0 0.0
0.19191919191919204 -1.0 0.0
0.21212121212121215 -1.0 0.0
0.2323232323232325 -1.0 0.0
0.2525252525252526 -1.0 0.0
0.27272727272727293 -1.0 0.0
0.29292929292929304 -1.0 0.0
0.31313131313131315 -1.0 0.0
0.3333333333333335 -1.0 0.0
0.3535353535353536 -1.0 0.0
0.3737373737373739 -1.0 0.0
0.39393939393939403 -1.0 0.0
0.41414141414141437 -1.0 0.0
0.4343434343434345 -1.0 0.0
0.4545454545454546 -1.0 0.0
0.4747474747474749 -1.0 0.0
0.49494949494949503 -1.0 0.0
0.5151515151515154 -1.0 0.0
0.5353535353535355 -1.0 0.0
0.5555555555555556 -1.0 0.0
0.5757575757575759 -1.0 0.0
0.595959595959596 -1.0 0.0
0.6161616161616164 -1.0 0.0
0.6363636363636365 -1.0 0.0
0.6565656565656568 -1.0 0.0
0.6767676767676769 -1.0 0.0
0.696969696969697 -1.0 0.0
0.7171717171717173 -1.0 0.0
0.7373737373737375 -1.0 0.0
0.7575757575757578 -1.0 0.0
0.7777777777777779 -1.0 0.0
0.7979797979797982 -1.0 0.0
0.8181818181818183 -1.0 0.0
0.8383838383838385 -1.0 0.0
0.8585858585858588 -1.0 0.0
0.8787878787878789 -1.0 0.0
0.8989898989898992 -1.0 0.0
0.9191919191919193 -1.0 0.0
0.9393939393939394 -1.0 0.0
0.9595959595959598 -1.0 0.0
0.9797979797979799 -1.0 0.0
1.0 -1.0 0.0
-1.0 -0.9797979797979798 0.0
-0.9797979797979798 -0.9797979797979798 0.0
-0.9595959595959596 -0.9797979797979798 0.0
-0.9393939393939394 -0.9797979797979798 0.0
-0.9191919191919192 -0.9797979797979798 0.0
-0.898989898989899 -0.9797979797979798 0.0
-0.8787878787878788 -0.9797979797979798 0.0
-0.8585858585858586 -0.9797979797979798 0.0
-0.8383838383838383 -0.9797979797979798 0.0
-0.8181818181818181 -0.9797979797979798 0.0
-0.797979797979798 -0.9797979797979798 0.0
-0.7777777777777778 -0.9797979797979798 0.0
-0.7575757575757576 -0.9797979797979798 0.0
-0.7373737373737373 -0.9797979797979798 0.0
-0.7171717171717171 -0.9797979797979798 0.0
-0.696969696969697 -0.9797979797979798 0.0
-0.6767676767676767 -0.9797979797979798 0.0
-0.6565656565656566 -0.9797979797979798 0.0
-0.6363636363636364 -0.9797979797979798 0.0
-0.6161616161616161 -0.9797979797979798 0.0
-0.5959595959595959 -0.9797979797979798 0.0
-0.5757575757575757 -0.9797979797979798 0.0
-0.5555555555555556 -0.9797979797979798 0.0
-0.5353535353535352 -0.9797979797979798 0.0
-0.5151515151515151 -0.9797979797979798 0.0
-0.4949494949494949 -0.9797979797979798 0.0
-0.4747474747474747 -0.9797979797979798 0.0
-0.4545454545454545 -0.9797979797979798 0.0
-0.43434343434343425 -0.9797979797979798 0.0
-0.41414141414141414 -0.9797979797979798 0.0
-0.3939393939393939 -0.9797979797979798 0.0
-0.3737373737373737 -0.9797979797979798 0.0
-0.3535353535353535 -0.9797979797979798 0.0
-0.33333333333333326 -0.9797979797979798 0.0
-0.31313131313131304 -0.9797979797979798 0.0
-0.2929292929292928 -0.9797979797979798 0.0
-0.2727272727272727 -0.9797979797979798 0.0
-0.2525252525252525 -0.9797979797979798 0.0
-0.23232323232323226 -0.9797979797979798 0.0
-0.21212121212121204 -0.9797979797979798 0.0
-0.19191919191919182 -0.9797979797979798 0.0
-0.1717171717171716 -0.9797979797979798 0.0
-0.1515151515151515 -0.9797979797979798 0.0
-0.13131313131313127 -0.9797979797979798 0.0
-0.11111111111111105 -0.9797979797979798 0.0
-0.09090909090909083 -0.9797979797979798 0.0
-0.07070707070707061 -0.9797979797979798 0.0
-0.050505050505050386 -0.9797979797979798 0.0
-0.030303030303030276 -0.9797979797979798 0.0
-0.010101010101010055 -0.9797979797979798 0.0
0.010101010101010166 -0.9797979797979798 0.0
0.030303030303030498 -0.9797979797979798 0.0
0.05050505050505061 -0.9797979797979798 0.0
0.07070707070707072 -0.9797979797979798 0.0
0.09090909090909105 -0.9797979797979798 0.0
0.11111111111111116 -0.9797979797979798 0.0
0.1313131313131315 -0.9797979797979798 0.0
0.1515151515151516 -0.9797979797979798 0.0
0.1717171717171717 -0.9797979797979798 0.0
0.19191919191919204 -0.9797979797979798 0.0
0.21212121212121215 -0.9797979797979798 0.0
0.2323232323232325 -0.9797979797979798 0.0
0.2525252525252526 -0.9797979797979798 0.0
0.27272727272727293 -0.9797979797979798 0.0
0.29292929292929304 -0.9797979797979798 0.0
0.31313131313131315 -0.9797979797979798 0.0
0.3333333333333335 -0.9797979797979798 0.0
0.3535353535353536 -0.9797979797979798 0.0
0.3737373737373739 -0.9797979797979798 0.0
0.39393939393939403 -0.9797979797979798 0.0
0.41414141414141437 -0.9797979797979798 0.0
0.4343434343434345 -0.9797979797979798 0.0
0.4545454545454546 -0.9797979797979798 0.0
0.4747474747474749 -0.9797979797979798 0.0
0.49494949494949503 -0.9797979797979798 0.0
0.5151515151515154 -0.9797979797979798 0.0
0.5353535353535355 -0.9797979797979798 0.0
0.5555555555555556 -0.9797979797979798 0.0
0.5757575757575759 -0.9797979797979798 0.0
0.595959595959596 -0.9797979797979798 0.0
0.6161616161616164 -0.9797979797979798 0.0
0.6363636363636365 -0.9797979797979798 0.0
0.6565656565656568 -0.9797979797979798 0.0
0.6767676767676769 -0.9797979797979798 0.0
0.696969696969697 -0.9797979797979798 0.0
0.7171717171717173 -0.9797979797979798 0.0
0.7373737373737375 -0.9797979797979798 0.0
0.7575757575757578 -0.9797979797979798 0.0
0.7777777777777779 -0.9797979797979798 0.0
0.7979797979797982 -0.9797979797979798 0.0
0.8181818181818183 -0.9797979797979798 0.0
0.8383838383838385 -0.9797979797979798 0.0
0.8585858585858588 -0.9797979797979798 0.0
0.8787878787878789 -0.9797979797979798 0.0
0.8989898989898992 -0.9797979797979798 0.0
0.9191919191919193 -0.9797979797979798 0.0
0.9393939393939394 -0.9797979797979798 0.0
0.9595959595959598 -0.9797979797979798 0.0
0.9797979797979799 -0.9797979797979798 0.0
1.0 -0.9797979797979798 0.0
-1.0 -0.9595959595959596 0.0
-0.9797979797979798 -0.9595959595959596 0.0
-0.9595959595959596 -0.9595959595959596 0.0
-0.9393939393939394 -0.9595959595959596 0.0
-0.9191919191919192 -0.9595959595959596 0.0
-0.898989898989899 -0.9595959595959596 0.0
-0.8787878787878788 -0.9595959595959596 0.0
-0.8585858585858586 -0.9595959595959596 0.0
-0.8383838383838383 -0.9595959595959596 0.0
-0.8181818181818181 -0.9595959595959596 0.0
-0.797979797979798 -0.9595959595959596 0.0
-0.7777777777777778 -0.9595959595959596 0.0
-0.7575757575757576 -0.9595959595959596 0.0
-0.7373737373737373 -0.9595959595959596 0.0
-0.7171717171717171 -0.9595959595959596 0.0
-0.696969696969697 -0.9595959595959596 0.0
-0.6767676767676767 -0.9595959595959596 0.0
-0.6565656565656566 -0.9595959595959596 0.0
-0.6363636363636364 -0.9595959595959596 0.0
-0.6161616161616161 -0.9595959595959596 0.0
-0.5959595959595959 -0.9595959595959596 0.0
-0.5757575757575757 -0.9595959595959596 0.0
-0.5555555555555556 -0.9595959595959596 0.0
-0.5353535353535352 -0.9595959595959596 0.0
-0.5151515151515151 -0.9595959595959596 0.0
-0.4949494949494949 -0.9595959595959596 0.0
-0.4747474747474747 -0.9595959595959596 0.0
-0.4545454545454545 -0.9595959595959596 0.0
-0.43434343434343425 -0.9595959595959596 0.0
-0.41414141414141414 -0.9595959595959596 0.0
-0.3939393939393939 -0.9595959595959596 0.0
-0.3737373737373737 -0.9595959595959596 0.0
-0.3535353535353535 -0.9595959595959596 0.0
-0.33333333333333326 -0.9595959595959596 0.0
-0.31313131313131304 -0.9595959595959596 0.0
-0.2929292929292928 -0.9595959595959596 0.0
-0.2727272727272727 -0.9595959595959596 0.0
-0.2525252525252525 -0.9595959595959596 0.0
-0.23232323232323226 -0.9595959595959596 0.0
-0.21212121212121204 -0.9595959595959596 0.0
-0.19191919191919182 -0.9595959595959596 0.0
-0.1717171717171716 -0.9595959595959596 0.0
-0.1515151515151515 -0.9595959595959596 0.0
-0.13131313131313127 -0.9595959595959596 0.0
-0.11111111111111105 -0.9595959595959596 0.0
-0.09090909090909083 -0.9595959595959596 0.0
-0.07070707070707061 -0.9595959595959596 0.0
-0.050505050505050386 -0.9595959595959596 0.0
-0.030303030303030276 -0.9595959595959596 0.0
-0.010101010101010055 -0.9595959595959596 0.0
0.010101010101010166 -0.9595959595959596 0.0
0.030303030303030498 -0.9595959595959596 0.0
0.05050505050505061 -0.9595959595959596 0.0
0.07070707070707072 -0.9595959595959596 0.0
0.09090909090909105 -0.9595959595959596 0.0
0.11111111111111116 -0.9595959595959596 0.0
0.1313131313131315 -0.9595959595959596 0.0
0.1515151515151516 -0.9595959595959596 0.0
0.1717171717171717 -0.9595959595959596 0.0
0.19191919191919204 -0.9595959595959596 0.0
0.21212121212121215 -0.9595959595959596 0.0
[...]
POINT_DATA 10000
SCALARS u float 1
LOOKUP_TABLE default
9.870529174804688e-05
9.605288505554199e-05
9.340047836303711e-05
9.064376354217529e-05
8.784234523773193e-05
8.492171764373779e-05
8.197128772735596e-05
7.899105548858643e-05
7.590651512145996e-05
7.280707359313965e-05
6.975233554840088e-05
6.665289402008057e-05
6.364285945892334e-05
6.064772605895996e-05
5.768239498138428e-05
5.480647087097168e-05
5.199015140533447e-05
4.92781400680542e-05
4.659593105316162e-05
4.3973326683044434e-05
4.149973392486572e-05
3.904104232788086e-05
3.6716461181640625e-05
3.457069396972656e-05
3.263354301452637e-05
3.090500831604004e-05
2.950429916381836e-05
2.8505921363830566e-05
2.7924776077270508e-05
2.779066562652588e-05
2.810359001159668e-05
2.8908252716064453e-05
3.018975257873535e-05
3.17692756652832e-05
3.358721733093262e-05
3.555417060852051e-05
3.759562969207764e-05
3.9458274841308594e-05
4.1097402572631836e-05
4.252791404724121e-05
4.357099533081055e-05
4.442036151885986e-05
4.507601261138916e-05
4.552304744720459e-05
4.614889621734619e-05
4.696846008300781e-05
4.813075065612793e-05
4.9933791160583496e-05
5.233287811279297e-05
5.5596232414245605e-05
5.970895290374756e-05
6.468594074249268e-05
7.048249244689941e-05
7.705390453338623e-05
8.419156074523926e-05
9.171664714813232e-05
9.918212890625e-05
0.00010636448860168457
0.00011268258094787598
0.00011777877807617188
0.0001211315393447876
0.00012253224849700928
0.00012183189392089844
0.00011900067329406738
0.00011430680751800537
0.00010782480239868164
9.998679161071777e-05
9.094178676605225e-05
8.100271224975586e-05
7.034838199615479e-05
5.9291720390319824e-05
4.814565181732178e-05
3.714859485626221e-05
2.6613473892211914e-05
1.6734004020690918e-05
7.495284080505371e-06
-1.043081283569336e-06
-8.955597877502441e-06
-1.640617847442627e-05
-2.3171305656433105e-05
-2.9385089874267578e-05
-3.473460674285889e-05
-3.9204955101013184e-05
-4.267692565917969e-05
-4.503130912780762e-05
-4.64320182800293e-05
-4.7206878662109375e-05
-4.780292510986328e-05
-4.875659942626953e-05
-5.066394805908203e-05
-5.4076313972473145e-05
-5.94407320022583e-05
-6.695091724395752e-05
-7.678568363189697e-05
-8.872151374816895e-05
-0.00010259449481964111
-0.00011779367923736572
-0.00013393163681030273
-0.00015038251876831055
-0.00016668438911437988
0.0001027137041091919
9.98377799987793e-05
9.682774543762207e-05
9.375810623168945e-05
9.05841588973999e-05
8.732080459594727e-05
8.396804332733154e-05
8.057057857513428e-05
7.705390453338623e-05
7.356703281402588e-05
7.002055644989014e-05
6.657838821411133e-05
6.304681301116943e-05
5.970895290374756e-05
5.640089511871338e-05
5.3122639656066895e-05
5.0067901611328125e-05
4.699826240539551e-05
4.412233829498291e-05
4.132091999053955e-05
3.871321678161621e-05
3.625452518463135e-05
3.395974636077881e-05
3.1828880310058594e-05
3.001093864440918e-05
2.8505921363830566e-05
2.720952033996582e-05
2.6434659957885742e-05
2.5972723960876465e-05
2.5972723960876465e-05
2.63899564743042e-05
2.7239322662353516e-05
2.8386712074279785e-05
2.9787421226501465e-05
3.139674663543701e-05
3.300607204437256e-05
3.4615397453308105e-05
3.6075711250305176e-05
3.7282705307006836e-05
3.828108310699463e-05
3.8936734199523926e-05
3.950297832489014e-05
3.987550735473633e-05
4.024803638458252e-05
4.0784478187561035e-05
4.163384437561035e-05
4.2945146560668945e-05
4.48077917098999e-05
4.7326087951660156e-05
5.0649046897888184e-05
5.4702162742614746e-05
5.9604644775390625e-05
6.523728370666504e-05
7.155537605285645e-05
7.843971252441406e-05
8.577108383178711e-05
9.335577487945557e-05
0.00010070204734802246
0.00010763108730316162
0.00011348724365234375
0.00011795759201049805
0.00012059509754180908
0.00012126564979553223
0.00011990964412689209
0.00011652708053588867
0.00011132657527923584
0.00010468065738677979
9.66191291809082e-05
8.732080459594727e-05
7.703900337219238e-05
6.614625453948975e-05
5.4776668548583984e-05
4.328787326812744e-05
3.217160701751709e-05
2.162158489227295e-05
1.1771917343139648e-05
2.6971101760864258e-06
-5.602836608886719e-06
-1.3172626495361328e-05
-2.008676528930664e-05
-2.637505531311035e-05
-3.1888484954833984e-05
-3.667175769805908e-05
-4.048645496368408e-05
-4.3392181396484375e-05
-4.540383815765381e-05
-4.686415195465088e-05
-4.8041343688964844e-05
-4.932284355163574e-05
-5.136430263519287e-05
-5.4582953453063965e-05
-5.939602851867676e-05
-6.61611557006836e-05
-7.507205009460449e-05
-8.58604907989502e-05
-9.854137897491455e-05
-0.00011263787746429443
-0.0001278221607208252
-0.00014351308345794678
-0.0001592189073562622
0.00010551512241363525
0.0001023411750793457
9.900331497192383e-05
9.560585021972656e-05
9.201467037200928e-05
8.834898471832275e-05
8.462369441986084e-05
8.082389831542969e-05
7.69495964050293e-05
7.304549217224121e-05
6.912648677825928e-05
6.532669067382812e-05
6.149709224700928e-05
5.774199962615967e-05
5.4135918617248535e-05
5.0708651542663574e-05
4.735589027404785e-05
4.413723945617676e-05
4.1112303733825684e-05
3.828108310699463e-05
3.55839729309082e-05
3.314018249511719e-05
3.091990947723389e-05
2.8952956199645996e-05
2.728402614593506e-05
2.5913119316101074e-05
2.4870038032531738e-05
2.4244189262390137e-05
2.4020671844482422e-05
2.4199485778808594e-05
2.466142177581787e-05
2.561509609222412e-05
2.6687979698181152e-05
2.8014183044433594e-05
2.937018871307373e-05
3.084540367126465e-05
3.215670585632324e-05
3.3289194107055664e-05
3.4183263778686523e-05
3.491342067718506e-05
3.5434961318969727e-05
3.585219383239746e-05
3.622472286224365e-05
3.668665885925293e-05
3.740191459655762e-05
3.8504600524902344e-05
4.003942012786865e-05
4.222989082336426e-05
4.509091377258301e-05
4.8533082008361816e-05
5.272030830383301e-05
5.75333833694458e-05
6.286799907684326e-05
6.885826587677002e-05
7.529556751251221e-05
8.220970630645752e-05
8.945167064666748e-05
9.670853614807129e-05
0.00010366737842559814
0.00011004507541656494
0.00011524558067321777
0.0001189112663269043
0.00012083351612091064
0.00012072920799255371
0.00011874735355377197
0.00011490285396575928
0.00010938942432403564
0.00010231137275695801
9.393692016601562e-05
8.425116539001465e-05
7.358193397521973e-05
6.215274333953857e-05
5.035102367401123e-05
3.860890865325928e-05
2.7254223823547363e-05
1.6689300537109375e-05
6.9141387939453125e-06
-1.9371509552001953e-06
-9.924173355102539e-06
-1.7076730728149414e-05
-2.352893352508545e-05
-2.92360782623291e-05
-3.413856029510498e-05
-3.8310885429382324e-05
-4.1618943214416504e-05
-4.419684410095215e-05
-4.617869853973389e-05
-4.781782627105713e-05
-4.957616329193115e-05
-5.1841139793395996e-05
-5.498528480529785e-05
-5.9545040130615234e-05
-6.574392318725586e-05
-7.382035255432129e-05
-8.378922939300537e-05
-9.542703628540039e-05
-0.00010858476161956787
-0.00012284517288208008
-0.00013768672943115234
-0.00015279650688171387
0.00010727345943450928
0.0001036226749420166
9.986758232116699e-05
9.60230827331543e-05
9.208917617797852e-05
8.799135684967041e-05
8.38935375213623e-05
7.964670658111572e-05
7.538497447967529e-05
7.11679458618164e-05
6.693601608276367e-05
6.271898746490479e-05
5.868077278137207e-05
5.4702162742614746e-05
5.093216896057129e-05
4.7266483306884766e-05
4.380941390991211e-05
4.051625728607178e-05
3.7476420402526855e-05
3.466010093688965e-05
3.2007694244384766e-05
2.968311309814453e-05
2.759695053100586e-05
2.5764107704162598e-05
2.4333596229553223e-05
2.32011079788208e-05
2.2456049919128418e-05
2.206861972808838e-05
2.2038817405700684e-05
2.232193946838379e-05
2.3066997528076172e-05
2.4005770683288574e-05
2.512335777282715e-05
2.6464462280273438e-05
2.7745962142944336e-05
2.9042363166809082e-05
3.018975257873535e-05
3.11732292175293e-05
3.196299076080322e-05
3.2529234886169434e-05
3.3035874366760254e-05
3.3482909202575684e-05
3.40193510055542e-05
3.471970558166504e-05
3.579258918762207e-05
3.726780414581299e-05
3.933906555175781e-05
4.200637340545654e-05
4.525482654571533e-05
4.906952381134033e-05
5.3435564041137695e-05
5.824863910675049e-05
6.343424320220947e-05
6.89774751663208e-05
7.486343383789062e-05
8.115172386169434e-05
8.772313594818115e-05
9.444355964660645e-05
0.00010120868682861328
0.00010763108730316162
0.00011321902275085449
0.00011761486530303955
0.00012049078941345215
0.00012159347534179688
0.00012087821960449219
0.00011835992336273193
0.00011403858661651611
0.00010822713375091553
0.00010076165199279785
9.18358564376831e-05
8.156895637512207e-05
7.027387619018555e-05
5.8263540267944336e-05
4.595518112182617e-05
3.390014171600342e-05
2.238154411315918e-05
1.1816620826721191e-05
2.175569534301758e-06
-6.407499313354492e-06
-1.4036893844604492e-05
-2.072751522064209e-05
-2.6658177375793457e-05
-3.17692756652832e-05
-3.6209821701049805e-05
-3.984570503234863e-05
-4.2825937271118164e-05
-4.5299530029296875e-05
-4.738569259643555e-05
-4.9486756324768066e-05
-5.200505256652832e-05
-5.5283308029174805e-05
-5.970895290374756e-05
-6.558001041412354e-05
-7.309019565582275e-05
-8.225440979003906e-05
-9.313225746154785e-05
-0.00010535120964050293
-0.00011883676052093506
-0.00013293325901031494
-0.00014735758304595947
0.00010779500007629395
0.00010368227958679199
9.94652509689331e-05
9.511411190032959e-05
9.070336818695068e-05
8.618831634521484e-05
8.162856101989746e-05
7.705390453338623e-05
7.243454456329346e-05
6.785988807678223e-05
6.332993507385254e-05
5.891919136047363e-05
5.467236042022705e-05
5.0514936447143555e-05
4.6581029891967773e-05
4.285573959350586e-05
3.935396671295166e-05
3.6150217056274414e-05
3.314018249511719e-05
3.038346767425537e-05
2.7924776077270508e-05
2.580881118774414e-05
2.396106719970703e-05
2.2366642951965332e-05
2.123415470123291e-05
2.039968967437744e-05
1.9922852516174316e-05
1.9848346710205078e-05
2.0116567611694336e-05
2.0697712898254395e-05
2.162158489227295e-05
2.2709369659423828e-05
2.3931264877319336e-05
2.5257468223571777e-05
2.658367156982422e-05
2.779066562652588e-05
2.8893351554870605e-05
2.9787421226501465e-05
3.053247928619385e-05
3.1113624572753906e-05
3.160536289215088e-05
3.224611282348633e-05
3.297626972198486e-05
3.395974636077881e-05
3.552436828613281e-05
3.758072853088379e-05
4.0218234062194824e-05
4.3526291847229004e-05
4.743039608001709e-05
5.1721930503845215e-05
5.6430697441101074e-05
6.139278411865234e-05
6.651878356933594e-05
7.168948650360107e-05
7.703900337219238e-05
8.250772953033447e-05
8.824467658996582e-05
9.413063526153564e-05
0.00010026991367340088
0.00010633468627929688
0.00011198222637176514
0.00011675059795379639
0.0001204460859298706
0.00012253224849700928
0.00012291967868804932
0.00012160837650299072
0.00011874735355377197
0.00011402368545532227
0.00010766088962554932
9.970366954803467e-05
9.006261825561523e-05
7.899105548858643e-05
6.690621376037598e-05
5.415081977844238e-05
4.144012928009033e-05
2.9042363166809082e-05
1.74790620803833e-05
6.973743438720703e-06
-2.3990869522094727e-06
-1.0669231414794922e-05
-1.786649227142334e-05
-2.415478229522705e-05
-2.9593706130981445e-05
-3.4183263778686523e-05
-3.8176774978637695e-05
-4.144012928009033e-05
-4.419684410095215e-05
-4.673004150390625e-05
-4.9173831939697266e-05
-5.1915645599365234e-05
-5.5342912673950195e-05
-5.970895290374756e-05
-6.541609764099121e-05
-7.249414920806885e-05
-8.115172386169434e-05
-9.137392044067383e-05
-0.00010295212268829346
-0.00011561810970306396
-0.0001291036605834961
-0.00014291703701019287
0.00010706484317779541
0.0001023411750793457
9.763240814208984e-05
9.274482727050781e-05
8.785724639892578e-05
8.285045623779297e-05
7.79181718826294e-05
7.292628288269043e-05
6.80387020111084e-05
6.319582462310791e-05
5.844235420227051e-05
5.385279655456543e-05
4.9501657485961914e-05
4.534423351287842e-05
4.13358211517334e-05
3.762543201446533e-05
3.4242868423461914e-05
3.1128525733947754e-05
2.8342008590698242e-05
2.5823712348937988e-05
2.358853816986084e-05
2.174079418182373e-05
2.0205974578857422e-05
1.9028782844543457e-05
1.8134713172912598e-05
1.7717480659484863e-05
1.7642974853515625e-05
1.7911195755004883e-05
1.84476375579834e-05
1.932680606842041e-05
2.0548701286315918e-05
2.1845102310180664e-05
2.327561378479004e-05
2.467632293701172e-05
2.6017427444458008e-05
2.726912498474121e-05
2.82973051071167e-05
2.919137477874756e-05
2.98917293548584e-05
3.0472874641418457e-05
3.106892108917236e-05
3.1813979148864746e-05
3.281235694885254e-05
3.427267074584961e-05
3.625452518463135e-05
3.8877129554748535e-05
4.214048385620117e-05
4.617869853973389e-05
5.075335502624512e-05
5.576014518737793e-05
6.096065044403076e-05
6.629526615142822e-05
7.145106792449951e-05
7.642805576324463e-05
8.118152618408203e-05
8.592009544372559e-05
9.062886238098145e-05
9.556114673614502e-05
0.0001008063554763794
0.0001062154769897461
0.00011157989501953125
0.00011645257472991943
0.00012056529521942139
0.0001234114170074463
0.00012487173080444336
0.00012473762035369873
0.0001230388879776001
0.00011965632438659668
0.00011450052261352539
0.00010760128498077393
9.872019290924072e-05
8.824467658996582e-05
7.618963718414307e-05
6.327033042907715e-05
4.99039888381958e-05
3.6716461181640625e-05
2.41696834564209e-05
1.2606382369995117e-05
2.294778823852539e-06
-6.8247318267822266e-06
-1.475214958190918e-05
-2.156198024749756e-05
-2.7358531951904297e-05
-3.2275915145874023e-05
-3.649294376373291e-05
-4.000961780548096e-05
-4.315376281738281e-05
-4.589557647705078e-05
-4.86522912979126e-05
-5.167722702026367e-05
-5.519390106201172e-05
-5.9604644775390625e-05
-6.51627779006958e-05
-7.207691669464111e-05
-8.036196231842041e-05
-9.007751941680908e-05
-0.0001010894775390625
-0.0001131892204284668
-0.00012601912021636963
-0.00013937056064605713
0.00010491907596588135
9.964406490325928e-05
9.430944919586182e-05
8.893013000488281e-05
8.350610733032227e-05
7.808208465576172e-05
7.274746894836426e-05
6.747245788574219e-05
6.227195262908936e-05
5.728006362915039e-05
5.237758159637451e-05
4.774332046508789e-05
4.334747791290283e-05
3.923475742340088e-05
3.540515899658203e-05
3.1813979148864746e-05
2.866983413696289e-05
2.5793910026550293e-05
2.3245811462402344e-05
2.104043960571289e-05
1.919269561767578e-05
1.7702579498291016e-05
1.659989356994629e-05
1.5780329704284668e-05
1.5422701835632324e-05
1.537799835205078e-05
1.5735626220703125e-05
1.6421079635620117e-05
1.7404556274414062e-05
1.8656253814697266e-05
2.0056962966918945e-05
2.162158489227295e-05
2.326071262359619e-05
2.4750828742980957e-05
2.6181340217590332e-05
2.746284008026123e-05
2.841651439666748e-05
2.9265880584716797e-05
2.9921531677246094e-05
3.0502676963806152e-05
3.11732292175293e-05
3.203749656677246e-05
3.3229589462280273e-05
3.497302532196045e-05
3.7357211112976074e-05
4.048645496368408e-05
4.4465065002441406e-05
4.912912845611572e-05
5.447864532470703e-05
6.0185790061950684e-05
6.61015510559082e-05
7.189810276031494e-05
7.730722427368164e-05
8.22991132736206e-05
8.666515350341797e-05
9.070336818695068e-05
9.453296661376953e-05
9.834766387939453e-05
0.00010250508785247803
0.0001070946455001831
0.00011183321475982666
0.00011652708053588867
0.00012084841728210449
0.00012424588203430176
0.00012655556201934814
0.0001275092363357544
0.00012695789337158203
0.00012493133544921875
0.00012111663818359375
0.00011536478996276855
0.0001074373722076416
9.766221046447754e-05
8.594989776611328e-05
7.292628288269043e-05
5.91278076171875e-05
4.522502422332764e-05
3.17692756652832e-05
1.913309097290039e-05
7.718801498413086e-06
-2.384185791015625e-06
-1.1146068572998047e-05
-1.8596649169921875e-05
-2.498924732208252e-05
-3.032386302947998e-05
-3.483891487121582e-05
-3.871321678161621e-05
-4.208087921142578e-05
-4.5105814933776855e-05
-4.805624485015869e-05
-5.123019218444824e-05
-5.498528480529785e-05
-5.9470534324645996e-05
-6.492435932159424e-05
-7.161498069763184e-05
-7.967650890350342e-05
-8.900463581085205e-05
-9.961426258087158e-05
-0.00011120736598968506
-0.00012362003326416016
-0.00013646483421325684
0.00010134279727935791
9.541213512420654e-05
8.951127529144287e-05
8.353590965270996e-05
7.767975330352783e-05
7.194280624389648e-05
6.625056266784668e-05
6.0692429542541504e-05
5.5402517318725586e-05
5.02467155456543e-05
4.532933235168457e-05
4.079937934875488e-05
3.650784492492676e-05
3.255903720855713e-05
2.898275852203369e-05
2.574920654296875e-05
2.288818359375e-05
2.0325183868408203e-05
1.817941665649414e-05
1.6391277313232422e-05
1.506507396697998e-05
1.4007091522216797e-05
1.3366341590881348e-05
1.3083219528198242e-05
1.3187527656555176e-05
1.3679265975952148e-05
1.4513731002807617e-05
1.5616416931152344e-05
1.7091631889343262e-05
1.8715858459472656e-05
2.0503997802734375e-05
2.2292137145996094e-05
2.4020671844482422e-05
2.5734305381774902e-05
2.714991569519043e-05
2.8431415557861328e-05
2.9340386390686035e-05
3.0085444450378418e-05
3.0666589736938477e-05
3.1113624572753906e-05
3.1754374504089355e-05
3.2588839530944824e-05
3.387033939361572e-05
3.5762786865234375e-05
3.835558891296387e-05
4.188716411590576e-05
4.632771015167236e-05
5.1647424697875977e-05
5.759298801422119e-05
6.407499313354492e-05
7.066130638122559e-05
7.711350917816162e-05
8.302927017211914e-05
8.812546730041504e-05
9.244680404663086e-05
9.600818157196045e-05
9.900331497192383e-05
0.00010189414024353027
0.00010499358177185059
0.00010849535465240479
0.00011247396469116211
0.00011679530143737793
0.00012105703353881836
0.00012478232383728027
0.0001278221607208252
0.0001296699047088623
0.00013037025928497314
0.00012959539890289307
0.0001271367073059082
0.0001226365566253662
0.00011593103408813477
0.00010696053504943848
9.585916996002197e-05
8.296966552734375e-05
6.902217864990234e-05
5.453824996948242e-05
4.0203332901000977e-05
2.658367156982422e-05
1.405179500579834e-05
2.9206275939941406e-06
-6.854534149169922e-06
-1.5243887901306152e-05
-2.232193946838379e-05
-2.828240394592285e-05
-3.318488597869873e-05
-3.737211227416992e-05
-4.100799560546875e-05
-4.425644874572754e-05
-4.743039608001709e-05
-5.0827860832214355e-05
-5.4582953453063965e-05
-5.91278076171875e-05
-6.461143493652344e-05
-7.121264934539795e-05
-7.900595664978027e-05
-8.809566497802734e-05
-9.837746620178223e-05
-0.00010961294174194336
-0.00012163817882537842
-0.0001341700553894043
9.63360071182251e-05
8.969008922576904e-05
8.320808410644531e-05
7.680058479309082e-05
7.06017017364502e-05
6.447732448577881e-05
5.857646465301514e-05
5.291402339935303e-05
4.760921001434326e-05
4.251301288604736e-05
3.7729740142822266e-05
3.333389759063721e-05
2.9385089874267578e-05
2.5764107704162598e-05
2.251565456390381e-05
1.9729137420654297e-05
1.728534698486328e-05
1.5184283256530762e-05
1.3574957847595215e-05
1.2293457984924316e-05
1.1429190635681152e-05
1.093745231628418e-05
1.0848045349121094e-05
1.1086463928222656e-05
1.1786818504333496e-05
1.2874603271484375e-05
1.424551010131836e-05
1.58846378326416e-05
1.77919864654541e-05
1.9803643226623535e-05
2.1919608116149902e-05
2.3990869522094727e-05
2.5913119316101074e-05
2.7626752853393555e-05
2.9131770133972168e-05
3.0279159545898438e-05
3.108382225036621e-05
3.167986869812012e-05
3.199279308319092e-05
3.2275915145874023e-05
3.27378511428833e-05
3.3348798751831055e-05
3.451108932495117e-05
3.637373447418213e-05
3.898143768310547e-05
4.266202449798584e-05
4.731118679046631e-05
5.297362804412842e-05
5.945563316345215e-05
6.653368473052979e-05
7.37607479095459e-05
8.085370063781738e-05
8.732080459594727e-05
9.284913539886475e-05
9.731948375701904e-05
0.00010065734386444092
0.00010322034358978271
0.00010527670383453369
0.00010739266872406006
0.00010994076728820801
0.00011309981346130371
0.00011686980724334717
0.00012092292308807373
0.00012493133544921875
0.0001284480094909668
0.00013121962547302246
0.00013297796249389648
0.00013346970081329346
0.0001323223114013672
0.00012922286987304688
0.00012376904487609863
0.00011587142944335938
0.00010551512241363525
9.304285049438477e-05
7.906556129455566e-05
6.432831287384033e-05
4.932284355163574e-05
3.4928321838378906e-05
2.135336399078369e-05
9.045004844665527e-06
-1.8477439880371094e-06
-1.1220574378967285e-05
-1.9162893295288086e-05
-2.5823712348937988e-05