# vtk DataFile Version 3.0
2D PINN Solution
ASCII
DATASET STRUCTURED_GRID
DIMENSIONS 100 100 1
POINTS 10000 float
-1.0 -1.0 0.0
-0.9797979797979798 -1.0 0.0
-0.9595959595959596 -1.0 0.0
-0.9393939393939394 -1.0 0.0
-0.9191919191919192 -1.0 0.0
-0.898989898989899 -1.0 0.0
-0.8787878787878788 -1.0 0.0
-0.8585858585858586 -1.0 0.0
-0.8383838383838383 -1.0 0.0
-0.8181818181818181 -1.0 0.0
-0.797979797979798 -1.0 0.0
-0.7777777777777778 -1.0 0.0
-0.7575757575757576 -1.0 0.0
-0.7373737373737373 -1.0 0.0
-0.7171717171717171 -1.0 0.0
-0.696969696969697 -1.0 0.0
-0.6767676767676767 -1.0 0.0
-0.6565656565656566 -1.0 0.0
-0.6363636363636364 -1.0 0.0
-0.6161616161616161 -1.0 0.0
-0.5959595959595959 -1.0 0.0
-0.5757575757575757 -1.0 0.0
-0.5555555555555556 -1.0 0.0
-0.5353535353535352 -1.0 0.0
-0.5151515151515151 -1.0 0.0
-0.4949494949494949 -1.0 0.0
-0.4747474747474747 -1.0 0.0
-0.4545454545454545 -1.0 0.0
-0.43434343434343425 -1.0 0.0
-0.41414141414141414 -1.0 0.0
-0.3939393939393939 -1.0 0.0
-0.3737373737373737 -1.0 0.0
-0.3535353535353535 -1.0 0.0
-0.33333333333333326 -1.0 0.0
-0.31313131313131304 -1.0 0.0
-0.2929292929292928 -1.0 0.0
-0.2727272727272727 -1.0 0.0
-0.2525252525252525 -1.0 0.0
-0.23232323232323226 -1.0 0.0
-0.21212121212121204 -1.0 0.0
-0.19191919191919182 -1.0 0.0
-0.1717171717171716 -1.0 0.0
-0.1515151515151515 -1.0 0.0
-0.13131313131313127 -1.0 0.0
-0.11111111111111105 -1.0 0.0
-0.09090909090909083 -1.0 0.0
-0.07070707070707061 -1.0 0.0
-0.050505050505050386 -1.0 0.0
-0.030303030303030276 -1.0 0.0
-0.010101010101010055 -1.0 0.0
0.010101010101010166 -1.0 0.0
0.030303030303030498 -1.0 0.0
0.05050505050505061 -1.0 0.0
0.07070707070707072 -1.0 0.0
0.09090909090909105 -1.0 0.0
0.11111111111111116 -1.0 0.0
0.1313131313131315 -1.0 0.0
0.1515151515151516 -1.0 0.0
0.1717171717171717 -1.0 0.0
0.19191919191919204 -1.0 0.0
0.21212121212121215 -1.0 0.0
0.2323232323232325 -1.0 0.0
0.2525252525252526 -1.0 0.0
0.27272727272727293 -1.0 0.0
0.29292929292929304 -1.0 0.0
0.31313131313131315 -1.0 0.0
0.3333333333333335 -1.0 0.0
0.3535353535353536 -1.0 0.0
0.3737373737373739 -1.0 0.0
0.39393939393939403 -1.0 0.0
0.41414141414141437 -1.0 0.0
0.4343434343434345 -1.0 0.0
0.4545454545454546 -1.0 0.0
0.4747474747474749 -1.0 0.0
0.49494949494949503 -1.0 0.0
0.5151515151515154 -1.0 0.0
0.5353535353535355 -1.0 0.0
0.5555555555555556 -1.0 0.0
0.5757575757575759 -1.0 0.0
0.595959595959596 -1.0 0.0
0.6161616161616164 -1.0 0.0
0.6363636363636365 -1.0 0.0
0.6565656565656568 -1.0 0.0
0.6767676767676769 -1.0 0.0
0.696969696969697 -1.0 0.0
0.7171717171717173 -1.0 0.0
0.7373737373737375 -1.0 0.0
0.7575757575757578 -1.0 0.0
0.7777777777777779 -1.0 0.0
0.7979797979797982 -1.0 0.0
0.8181818181818183 -1.0 0.0
0.8383838383838385 -1.0 0.0
0.8585858585858588 -1.0 0.0
0.8787878787878789 -1.0 0.0
0.8989898989898992 -1.0 0.0
0.9191919191919193 -1.0 0.0
0.9393939393939394 -1.0 0.0
0.9595959595959598 -1.0 0.0
0.9797979797979799 -1.0 0.0
1.0 -1.0 0.0
-1.0 -0.9797979797979798 0.0
-0.9797979797979798 -0.9797979797979798 0.0
-0.9595959595959596 -0.9797979797979798 0.0
-0.9393939393939394 -0.9797979797979798 0.0
-0.9191919191919192 -0.9797979797979798 0.0
-0.898989898989899 -0.9797979797979798 0.0
-0.8787878787878788 -0.9797979797979798 0.0
-0.8585858585858586 -0.9797979797979798 0.0
-0.8383838383838383 -0.9797979797979798 0.0
-0.8181818181818181 -0.9797979797979798 0.0
-0.797979797979798 -0.9797979797979798 0.0
-0.7777777777777778 -0.9797979797979798 0.0
-0.7575757575757576 -0.9797979797979798 0.0
-0.7373737373737373 -0.9797979797979798 0.0
-0.7171717171717171 -0.9797979797979798 0.0
-0.696969696969697 -0.9797979797979798 0.0
-0.6767676767676767 -0.9797979797979798 0.0
-0.6565656565656566 -0.9797979797979798 0.0
-0.6363636363636364 -0.9797979797979798 0.0
-0.6161616161616161 -0.9797979797979798 0.0
-0.5959595959595959 -0.9797979797979798 0.0
-0.5757575757575757 -0.9797979797979798 0.0
-0.5555555555555556 -0.9797979797979798 0.0
-0.5353535353535352 -0.9797979797979798 0.0
-0.5151515151515151 -0.9797979797979798 0.0
-0.4949494949494949 -0.9797979797979798 0.0
-0.4747474747474747 -0.9797979797979798 0.0
-0.4545454545454545 -0.9797979797979798 0.0
-0.43434343434343425 -0.9797979797979798 0.0
-0.41414141414141414 -0.9797979797979798 0.0
-0.3939393939393939 -0.9797979797979798 0.0
-0.3737373737373737 -0.9797979797979798 0.0
-0.3535353535353535 -0.9797979797979798 0.0
-0.33333333333333326 -0.9797979797979798 0.0
-0.31313131313131304 -0.9797979797979798 0.0
-0.2929292929292928 -0.9797979797979798 0.0
-0.2727272727272727 -0.9797979797979798 0.0
-0.2525252525252525 -0.9797979797979798 0.0
-0.23232323232323226 -0.9797979797979798 0.0
-0.21212121212121204 -0.9797979797979798 0.0
-0.19191919191919182 -0.9797979797979798 0.0
-0.1717171717171716 -0.9797979797979798 0.0
-0.1515151515151515 -0.9797979797979798 0.0
-0.13131313131313127 -0.9797979797979798 0.0
-0.11111111111111105 -0.9797979797979798 0.0
-0.09090909090909083 -0.9797979797979798 0.0
-0.07070707070707061 -0.9797979797979798 0.0
-0.050505050505050386 -0.9797979797979798 0.0
-0.030303030303030276 -0.9797979797979798 0.0
-0.010101010101010055 -0.9797979797979798 0.0
0.010101010101010166 -0.9797979797979798 0.0
0.030303030303030498 -0.9797979797979798 0.0
0.05050505050505061 -0.9797979797979798 0.0
0.07070707070707072 -0.9797979797979798 0.0
0.09090909090909105 -0.9797979797979798 0.0
0.11111111111111116 -0.9797979797979798 0.0
0.1313131313131315 -0.9797979797979798 0.0
0.1515151515151516 -0.9797979797979798 0.0
0.1717171717171717 -0.9797979797979798 0.0
0.19191919191919204 -0.9797979797979798 0.0
0.21212121212121215 -0.9797979797979798 0.0
0.2323232323232325 -0.9797979797979798 0.0
0.2525252525252526 -0.9797979797979798 0.0
0.27272727272727293 -0.9797979797979798 0.0
0.29292929292929304 -0.9797979797979798 0.0
0.31313131313131315 -0.9797979797979798 0.0
0.3333333333333335 -0.9797979797979798 0.0
0.3535353535353536 -0.9797979797979798 0.0
0.3737373737373739 -0.9797979797979798 0.0
0.39393939393939403 -0.9797979797979798 0.0
0.41414141414141437 -0.9797979797979798 0.0
0.4343434343434345 -0.9797979797979798 0.0
0.4545454545454546 -0.9797979797979798 0.0
0.4747474747474749 -0.9797979797979798 0.0
0.49494949494949503 -0.9797979797979798 0.0
0.5151515151515154 -0.9797979797979798 0.0
0.5353535353535355 -0.9797979797979798 0.0
0.5555555555555556 -0.9797979797979798 0.0
0.5757575757575759 -0.9797979797979798 0.0
0.595959595959596 -0.9797979797979798 0.0
0.6161616161616164 -0.9797979797979798 0.0
0.6363636363636365 -0.9797979797979798 0.0
0.6565656565656568 -0.9797979797979798 0.0
0.6767676767676769 -0.9797979797979798 0.0
0.696969696969697 -0.9797979797979798 0.0
0.7171717171717173 -0.9797979797979798 0.0
0.7373737373737375 -0.9797979797979798 0.0
0.7575757575757578 -0.9797979797979798 0.0
0.7777777777777779 -0.9797979797979798 0.0
0.7979797979797982 -0.9797979797979798 0.0
0.8181818181818183 -0.9797979797979798 0.0
0.8383838383838385 -0.9797979797979798 0.0
0.8585858585858588 -0.9797979797979798 0.0
0.8787878787878789 -0.9797979797979798 0.0
0.8989898989898992 -0.9797979797979798 0.0
0.9191919191919193 -0.9797979797979798 0.0
0.9393939393939394 -0.9797979797979798 0.0
0.9595959595959598 -0.9797979797979798 0.0
0.9797979797979799 -0.9797979797979798 0.0
1.0 -0.9797979797979798 0.0
-1.0 -0.9595959595959596 0.0
-0.9797979797979798 -0.9595959595959596 0.0
-0.9595959595959596 -0.9595959595959596 0.0
-0.9393939393939394 -0.9595959595959596 0.0
-0.9191919191919192 -0.9595959595959596 0.0
-0.898989898989899 -0.9595959595959596 0.0
-0.8787878787878788 -0.9595959595959596 0.0
-0.8585858585858586 -0.9595959595959596 0.0
-0.8383838383838383 -0.9595959595959596 0.0
-0.8181818181818181 -0.9595959595959596 0.0
-0.797979797979798 -0.9595959595959596 0.0
-0.7777777777777778 -0.9595959595959596 0.0
-0.7575757575757576 -0.9595959595959596 0.0
-0.7373737373737373 -0.9595959595959596 0.0
-0.7171717171717171 -0.9595959595959596 0.0
-0.696969696969697 -0.9595959595959596 0.0
-0.6767676767676767 -0.9595959595959596 0.0
-0.6565656565656566 -0.9595959595959596 0.0
-0.6363636363636364 -0.9595959595959596 0.0
-0.6161616161616161 -0.9595959595959596 0.0
-0.5959595959595959 -0.9595959595959596 0.0
-0.5757575757575757 -0.9595959595959596 0.0
-0.5555555555555556 -0.9595959595959596 0.0
-0.5353535353535352 -0.9595959595959596 0.0
-0.5151515151515151 -0.9595959595959596 0.0
-0.4949494949494949 -0.9595959595959596 0.0
-0.4747474747474747 -0.9595959595959596 0.0
-0.4545454545454545 -0.9595959595959596 0.0
-0.43434343434343425 -0.9595959595959596 0.0
-0.41414141414141414 -0.9595959595959596 0.0
-0.3939393939393939 -0.9595959595959596 0.0
-0.3737373737373737 -0.9595959595959596 0.0
-0.3535353535353535 -0.9595959595959596 0.0
-0.33333333333333326 -0.9595959595959596 0.0
-0.31313131313131304 -0.9595959595959596 0.0
-0.2929292929292928 -0.9595959595959596 0.0
-0.2727272727272727 -0.9595959595959596 0.0
-0.2525252525252525 -0.9595959595959596 0.0
-0.23232323232323226 -0.9595959595959596 0.0
-0.21212121212121204 -0.9595959595959596 0.0
-0.19191919191919182 -0.9595959595959596 0.0
-0.1717171717171716 -0.9595959595959596 0.0
-0.1515151515151515 -0.9595959595959596 0.0
-0.13131313131313127 -0.9595959595959596 0.0
-0.11111111111111105 -0.9595959595959596 0.0
-0.09090909090909083 -0.9595959595959596 0.0
-0.07070707070707061 -0.9595959595959596 0.0
-0.050505050505050386 -0.9595959595959596 0.0
-0.030303030303030276 -0.9595959595959596 0.0
-0.010101010101010055 -0.9595959595959596 0.0
0.010101010101010166 -0.9595959595959596 0.0
0.030303030303030498 -0.9595959595959596 0.0
0.05050505050505061 -0.9595959595959596 0.0
0.07070707070707072 -0.9595959595959596 0.0
0.09090909090909105 -0.9595959595959596 0.0
0.11111111111111116 -0.9595959595959596 0.0
0.1313131313131315 -0.9595959595959596 0.0
0.1515151515151516 -0.9595959595959596 0.0
0.1717171717171717 -0.9595959595959596 0.0
0.19191919191919204 -0.9595959595959596 0.0
0.21212121212121215 -0.9595959595959596 0.0
[...]
POINT_DATA 10000
SCALARS u float 1
LOOKUP_TABLE default
1.7002224922180176e-05
1.2531876564025879e-05
8.64267349243164e-06
5.289912223815918e-06
2.473592758178711e-06
2.9802322387695312e-08
-2.130866050720215e-06
-4.06801700592041e-06
-5.766749382019043e-06
-7.4356794357299805e-06
-9.134411811828613e-06
-1.080334186553955e-05
-1.2621283531188965e-05
-1.4483928680419922e-05
-1.659989356994629e-05
-1.8864870071411133e-05
-2.1219253540039062e-05
-2.378225326538086e-05
-2.6479363441467285e-05
-2.92360782623291e-05
-3.202259540557861e-05
-3.473460674285889e-05
-3.7357211112976074e-05
-3.9890408515930176e-05
-4.2319297790527344e-05
-4.4479966163635254e-05
-4.652142524719238e-05
-4.836916923522949e-05
-5.005300045013428e-05
-5.167722702026367e-05
-5.321204662322998e-05
-5.474686622619629e-05
-5.622208118438721e-05
-5.7756900787353516e-05
-5.9351325035095215e-05
-6.097555160522461e-05
-6.270408630371094e-05
-6.444752216339111e-05
-6.61015510559082e-05
-6.785988807678223e-05
-6.937980651855469e-05
-7.082521915435791e-05
-7.209181785583496e-05
-7.31050968170166e-05
-7.385015487670898e-05
-7.437169551849365e-05
-7.461011409759521e-05
-7.461011409759521e-05
-7.450580596923828e-05
-7.429718971252441e-05
-7.405877113342285e-05
-7.4043869972229e-05
-7.432699203491211e-05
-7.50422477722168e-05
-7.62939453125e-05
-7.827579975128174e-05
-8.095800876617432e-05
-8.447468280792236e-05
-8.878111839294434e-05
-9.372830390930176e-05
-9.931623935699463e-05
-0.00010533630847930908
-0.00011157989501953125
-0.00011783838272094727
-0.00012393295764923096
-0.00012959539890289307
-0.00013455748558044434
-0.00013875961303710938
-0.00014209747314453125
-0.00014440715312957764
-0.00014576315879821777
-0.00014622509479522705
-0.0001458972692489624
-0.00014485418796539307
-0.00014334917068481445
-0.0001414865255355835
-0.00013945996761322021
-0.00013749301433563232
-0.00013568997383117676
-0.00013425946235656738
-0.0001332610845565796
-0.00013273954391479492
-0.0001328587532043457
-0.00013352930545806885
-0.0001348555088043213
-0.0001367628574371338
-0.00013922154903411865
-0.00014221668243408203
-0.000145643949508667
-0.0001493990421295166
-0.000153467059135437
-0.0001576542854309082
-0.00016196072101593018
-0.0001662224531173706
-0.00017036497592926025
-0.0001742541790008545
-0.00017777085304260254
-0.00018084049224853516
-0.00018353760242462158
-0.00018548965454101562
1.9565224647521973e-05
1.576542854309082e-05
1.2502074241638184e-05
9.834766387939453e-06
7.599592208862305e-06
5.692243576049805e-06
4.112720489501953e-06
2.726912498474121e-06
1.4603137969970703e-06
1.9371509552001953e-07
-1.0728836059570312e-06
-2.5779008865356445e-06
-4.172325134277344e-06
-6.0498714447021484e-06
-8.150935173034668e-06
-1.055002212524414e-05
-1.3113021850585938e-05
-1.5929341316223145e-05
-1.8894672393798828e-05
-2.2023916244506836e-05
-2.5153160095214844e-05
-2.828240394592285e-05
-3.135204315185547e-05
-3.4242868423461914e-05
-3.688037395477295e-05
-3.936886787414551e-05
-4.16487455368042e-05
-4.366040229797363e-05
-4.552304744720459e-05
-4.723668098449707e-05
-4.887580871582031e-05
-5.050003528594971e-05
-5.2094459533691406e-05
-5.377829074859619e-05
-5.552172660827637e-05
-5.7503581047058105e-05
-5.9545040130615234e-05
-6.164610385894775e-05
-6.389617919921875e-05
-6.61611557006836e-05
-6.848573684692383e-05
-7.075071334838867e-05
-7.292628288269043e-05
-7.502734661102295e-05
-7.700920104980469e-05
-7.881224155426025e-05
-8.037686347961426e-05
-8.182227611541748e-05
-8.320808410644531e-05
-8.444488048553467e-05
-8.568167686462402e-05
-8.70823860168457e-05
-8.866190910339355e-05
-9.055435657501221e-05
-9.28640365600586e-05
-9.56803560256958e-05
-9.901821613311768e-05
-0.00010292232036590576
-0.0001074671745300293
-0.00011244416236877441
-0.00011788308620452881
-0.00012353062629699707
-0.0001293569803237915
-0.0001350194215774536
-0.00014039874076843262
-0.00014531612396240234
-0.00014953315258026123
-0.00015303492546081543
-0.0001554936170578003
-0.0001570582389831543
-0.00015769898891448975
-0.00015738606452941895
-0.00015632808208465576
-0.00015461444854736328
-0.00015236437320709229
-0.00014983117580413818
-0.00014713406562805176
-0.00014443695545196533
-0.00014197826385498047
-0.00013975799083709717
-0.00013805925846099854
-0.00013686716556549072
-0.00013622641563415527
-0.00013618171215057373
-0.00013682246208190918
-0.00013807415962219238
-0.00013987720012664795
-0.00014227628707885742
-0.00014519691467285156
-0.0001484900712966919
-0.00015214085578918457
-0.00015601515769958496
-0.00016006827354431152
-0.00016412138938903809
-0.0001681596040725708
-0.0001719743013381958
-0.00017556548118591309
-0.00017875432968139648
-0.00018146634101867676
-0.00018355250358581543
2.2798776626586914e-05
1.9505620002746582e-05
1.6987323760986328e-05
1.4856457710266113e-05
1.329183578491211e-05
1.1995434761047363e-05
1.0967254638671875e-05
1.0073184967041016e-05
9.313225746154785e-06
8.448958396911621e-06
7.465481758117676e-06
6.258487701416016e-06
4.827976226806641e-06
3.039836883544922e-06
9.5367431640625e-07
-1.5050172805786133e-06
-4.276633262634277e-06
-7.405877113342285e-06
-1.0699033737182617e-05
-1.4185905456542969e-05
-1.7777085304260254e-05
-2.130866050720215e-05
-2.4750828742980957e-05
-2.8058886528015137e-05
-3.1054019927978516e-05
-3.388524055480957e-05
-3.637373447418213e-05
-3.859400749206543e-05
-4.057586193084717e-05
-4.239380359649658e-05
-4.410743713378906e-05
-4.5746564865112305e-05
-4.747509956359863e-05
-4.926323890686035e-05
-5.120038986206055e-05
-5.327165126800537e-05
-5.5596232414245605e-05
-5.811452865600586e-05
-6.0811638832092285e-05
-6.358325481414795e-05
-6.657838821411133e-05
-6.961822509765625e-05
-7.265806198120117e-05
-7.572770118713379e-05
-7.869303226470947e-05
-8.168816566467285e-05
-8.456408977508545e-05
-8.735060691833496e-05
-9.006261825561523e-05
-9.275972843170166e-05
-9.5367431640625e-05
-9.810924530029297e-05
-0.00010092556476593018
-0.00010402500629425049
-0.00010728836059570312
-0.0001109689474105835
-0.00011496245861053467
-0.00011935830116271973
-0.00012406706809997559
-0.0001291334629058838
-0.00013433396816253662
-0.00013969838619232178
-0.00014506280422210693
-0.00015014410018920898
-0.00015492737293243408
-0.00015914440155029297
-0.00016261637210845947
-0.0001652836799621582
-0.000167161226272583
-0.00016804039478302002
-0.00016802549362182617
-0.000167161226272583
-0.00016552209854125977
-0.00016324222087860107
-0.0001605004072189331
-0.00015744566917419434
-0.00015416741371154785
-0.00015094876289367676
-0.00014792382717132568
-0.00014519691467285156
-0.0001427978277206421
-0.00014095008373260498
-0.00013969838619232178
-0.00013902783393859863
-0.00013899803161621094
-0.0001396089792251587
-0.00014081597328186035
-0.00014260411262512207
-0.00014494359493255615
-0.00014778971672058105
-0.0001509934663772583
-0.00015453994274139404
-0.0001582801342010498
-0.00016213953495025635
-0.00016602873802185059
-0.00016982853412628174
-0.00017337501049041748
-0.00017657876014709473
-0.00017938017845153809
-0.00018158555030822754
2.6538968086242676e-05
2.3856759071350098e-05
2.1830201148986816e-05
2.0384788513183594e-05
1.9371509552001953e-05
1.8656253814697266e-05
1.8134713172912598e-05
1.77919864654541e-05
1.7464160919189453e-05
1.7017126083374023e-05
1.634657382965088e-05
1.5437602996826172e-05
1.4171004295349121e-05
1.245737075805664e-05
1.029670238494873e-05
7.733702659606934e-06
4.753470420837402e-06
1.3113021850585938e-06
-2.428889274597168e-06
-6.377696990966797e-06
-1.0386109352111816e-05
-1.4454126358032227e-05
-1.8417835235595703e-05
-2.2098422050476074e-05
-2.555549144744873e-05
-2.866983413696289e-05
-3.141164779663086e-05
-3.388524055480957e-05
-3.603100776672363e-05
-3.795325756072998e-05
-3.968179225921631e-05
-4.141032695770264e-05
-4.3198466300964355e-05
-4.4971704483032227e-05
-4.7072768211364746e-05
-4.92781400680542e-05
-5.1781535148620605e-05
-5.456805229187012e-05
-5.760788917541504e-05
-6.0886144638061523e-05
-6.437301635742188e-05
-6.805360317230225e-05
-7.195770740509033e-05
-7.589161396026611e-05
-7.988512516021729e-05
-8.399784564971924e-05
-8.80509614944458e-05
-9.208917617797852e-05
-9.614229202270508e-05
-0.0001001507043838501
-0.00010414421558380127
-0.00010819733142852783
-0.00011228024959564209
-0.00011646747589111328
-0.00012074410915374756
-0.00012521445751190186
-0.00012980401515960693
-0.00013463199138641357
-0.00013956427574157715
-0.00014460086822509766
-0.00014963746070861816
-0.00015461444854736328
-0.00015939772129058838
-0.00016388297080993652
-0.0001678764820098877
-0.0001714080572128296
-0.0001741945743560791
-0.0001761913299560547
-0.00017727911472320557
-0.00017762184143066406
-0.00017705559730529785
-0.00017571449279785156
-0.0001735985279083252
-0.00017088651657104492
-0.00016777217388153076
-0.00016430020332336426
-0.00016066431999206543
-0.0001570582389831543
-0.00015351176261901855
-0.00015029311180114746
-0.0001475214958190918
-0.00014515221118927002
-0.00014327466487884521
-0.0001420527696609497
-0.00014138221740722656
-0.00014133751392364502
-0.00014196336269378662
-0.00014318525791168213
-0.00014495849609375
-0.00014731287956237793
-0.00015003979206085205
-0.00015319883823394775
-0.00015664100646972656
-0.00016033649444580078
-0.0001640617847442627
-0.00016769766807556152
-0.0001712590456008911
-0.0001744776964187622
-0.00017730891704559326
-0.0001796334981918335
3.0666589736938477e-05
2.8520822525024414e-05
2.709031105041504e-05
2.612173557281494e-05
2.561509609222412e-05
2.549588680267334e-05
2.5480985641479492e-05
2.5585293769836426e-05
2.5704503059387207e-05
2.562999725341797e-05
2.5331974029541016e-05
2.460181713104248e-05
2.346932888031006e-05
2.1830201148986816e-05
1.9595026969909668e-05
1.6883015632629395e-05
1.3500452041625977e-05
9.685754776000977e-06
5.5283308029174805e-06
1.0579824447631836e-06
-3.546476364135742e-06
-8.180737495422363e-06
-1.2695789337158203e-05
-1.6957521438598633e-05
-2.0891427993774414e-05
-2.434849739074707e-05
-2.7447938919067383e-05
-3.0040740966796875e-05
-3.235042095184326e-05
-3.437697887420654e-05
-3.610551357269287e-05
-3.78340482711792e-05
-3.941357135772705e-05
-4.121661186218262e-05
-4.3198466300964355e-05
-4.5359134674072266e-05
-4.795193672180176e-05
-5.0768256187438965e-05
-5.4001808166503906e-05
-5.7563185691833496e-05
-6.152689456939697e-05
-6.580352783203125e-05
-7.040798664093018e-05
-7.520616054534912e-05
-8.025765419006348e-05
-8.545815944671631e-05
-9.074807167053223e-05
-9.605288505554199e-05
-0.00010144710540771484
-0.00010685622692108154
-0.00011217594146728516
-0.00011758506298065186
-0.00012291967868804932
-0.00012823939323425293
-0.00013364851474761963
-0.0001389235258102417
-0.00014422833919525146
-0.0001494288444519043
-0.0001545548439025879
-0.00015954673290252686
-0.00016438961029052734
-0.0001688748598098755
-0.00017306208610534668
-0.00017683207988739014
-0.00018009543418884277
-0.00018274784088134766
-0.000184670090675354
-0.0001859813928604126
-0.00018639862537384033
-0.00018608570098876953
-0.0001850128173828125
-0.00018322467803955078
-0.00018076598644256592
-0.00017765164375305176
-0.00017426908016204834
-0.00017052888870239258
-0.00016663968563079834
-0.00016270577907562256
-0.00015895068645477295
-0.00015532970428466797
-0.00015214085578918457
-0.00014929473400115967
-0.0001469254493713379
-0.00014516711235046387
-0.0001439899206161499
-0.00014334917068481445
-0.0001434236764907837
-0.00014403462409973145
-0.00014528632164001465
-0.0001471191644668579
-0.00014944374561309814
-0.00015217065811157227
-0.00015529990196228027
-0.0001587122678756714
-0.00016221404075622559
-0.00016577541828155518
-0.00016924738883972168
-0.00017240643501281738
-0.00017532706260681152
-0.00017777085304260254
3.5136938095092773e-05
3.3468008041381836e-05
3.2454729080200195e-05
3.197789192199707e-05
3.197789192199707e-05
3.2261013984680176e-05
3.282725811004639e-05
3.330409526824951e-05
3.381073474884033e-05
3.409385681152344e-05
3.406405448913574e-05
3.3527612686157227e-05
3.248453140258789e-05
3.08305025100708e-05
2.8431415557861328e-05
2.5451183319091797e-05
2.1710991859436035e-05
1.7404556274414062e-05
1.2680888175964355e-05
7.554888725280762e-06
2.294778823852539e-06
-2.995133399963379e-06
-8.13603401184082e-06
-1.3008713722229004e-05
-1.7404556274414062e-05
-2.1323561668395996e-05
-2.467632293701172e-05
-2.7477741241455078e-05
-2.9787421226501465e-05
-3.165006637573242e-05
-3.316998481750488e-05
-3.451108932495117e-05
-3.585219383239746e-05
-3.7163496017456055e-05
-3.8623809814453125e-05
-4.038214683532715e-05
-4.254281520843506e-05
-4.506111145019531e-05
-4.8100948333740234e-05
-5.163252353668213e-05
-5.580484867095947e-05
-6.046891212463379e-05
-6.568431854248047e-05
-7.131695747375488e-05
-7.741153240203857e-05
-8.386373519897461e-05
-9.053945541381836e-05
-9.740889072418213e-05
-0.00010436773300170898
-0.00011134147644042969
-0.00011834502220153809
-0.00012530386447906494
-0.00013221800327301025
-0.00013896822929382324
-0.00014559924602508545
-0.0001519620418548584
-0.00015808641910552979
-0.00016382336616516113
-0.00016927719116210938
-0.00017426908016204834
-0.00017881393432617188
-0.00018286705017089844
-0.00018636882305145264
-0.00018934905529022217
-0.0001917034387588501
-0.00019349157810211182
-0.0001945793628692627
-0.00019496679306030273
-0.00019471347332000732
-0.00019377470016479492
-0.00019210577011108398
-0.00018988549709320068
-0.00018709897994995117
-0.000183790922164917
-0.00018011033535003662
-0.00017617642879486084
-0.00017209351062774658
-0.00016796588897705078
-0.00016394257545471191
-0.00016009807586669922
-0.00015659630298614502
-0.00015339255332946777
-0.00015066564083099365
-0.0001484304666519165
-0.00014679133892059326
-0.00014562904834747314
-0.00014516711235046387
-0.0001452714204788208
-0.0001459866762161255
-0.00014731287956237793
-0.00014919042587280273
-0.00015151500701904297
-0.00015430152416229248
-0.00015735626220703125
-0.00016066431999206543
-0.00016410648822784424
-0.00016745924949645996
-0.0001706629991531372
-0.00017355382442474365
-0.00017602741718292236
3.9771199226379395e-05
3.854930400848389e-05
3.790855407714844e-05
3.789365291595459e-05
3.8251280784606934e-05
3.904104232788086e-05
3.984570503234863e-05
4.082918167114258e-05
4.163384437561035e-05
4.2244791984558105e-05
4.236400127410889e-05
4.1991472244262695e-05
4.094839096069336e-05
3.916025161743164e-05
3.65525484085083e-05
3.318488597869873e-05
2.899765968322754e-05
2.41696834564209e-05
1.87605619430542e-05
1.290440559387207e-05
6.8694353103637695e-06
8.493661880493164e-07
-4.947185516357422e-06
-1.0386109352111816e-05
-1.5303492546081543e-05
-1.9431114196777344e-05
-2.2903084754943848e-05
-2.5659799575805664e-05
-2.7671456336975098e-05
-2.905726432800293e-05
-2.9921531677246094e-05
-3.0308961868286133e-05
-3.053247928619385e-05
-3.0606985092163086e-05
-3.075599670410156e-05
-3.11434268951416e-05
-3.197789192199707e-05
-3.3274292945861816e-05
-3.528594970703125e-05
-3.807246685028076e-05
-4.182755947113037e-05
-4.649162292480469e-05
-5.21242618560791e-05
-5.860626697540283e-05
-6.596744060516357e-05
-7.395446300506592e-05
-8.252263069152832e-05
-9.150803089141846e-05
-0.00010064244270324707
-0.00011001527309417725
-0.00011940300464630127
-0.00012861192226409912
-0.00013777613639831543
-0.0001465529203414917
-0.00015503168106079102
-0.00016310811042785645
-0.00017060339450836182
-0.0001773238182067871
-0.00018332898616790771
-0.00018860399723052979
-0.0001930445432662964
-0.00019666552543640137
-0.00019957125186920166
-0.00020165741443634033
-0.0002031177282333374
-0.00020392239093780518
-0.00020404160022735596
-0.00020353496074676514
-0.00020247697830200195
-0.00020080804824829102
-0.0001986175775527954
-0.00019590556621551514
-0.00019277632236480713
-0.00018924474716186523
-0.0001853853464126587
-0.00018127262592315674
-0.0001770704984664917
-0.00017282366752624512
-0.00016871094703674316
-0.00016467273235321045
-0.0001609325408935547
-0.00015747547149658203
-0.0001544356346130371
-0.00015178322792053223
-0.0001497119665145874
-0.00014816224575042725
-0.00014719367027282715
-0.00014679133892059326
-0.00014705955982208252
-0.00014787912368774414
-0.00014930963516235352
-0.00015123188495635986
-0.00015364587306976318
-0.00015644729137420654
-0.00015951693058013916
-0.0001627206802368164
-0.00016595423221588135
-0.0001690983772277832
-0.00017192959785461426
-0.00017446279525756836
4.458427429199219e-05
4.363059997558594e-05
4.340708255767822e-05
4.369020462036133e-05
4.450976848602295e-05
4.547834396362305e-05
4.673004150390625e-05
4.801154136657715e-05
4.903972148895264e-05
4.984438419342041e-05
5.009770393371582e-05
4.976987838745117e-05
4.8607587814331055e-05
4.661083221435547e-05
4.373490810394287e-05
3.978610038757324e-05
3.5122036933898926e-05
2.9578804969787598e-05
2.3379921913146973e-05
1.6808509826660156e-05
1.0013580322265625e-05
3.2633543014526367e-06
-3.1888484954833984e-06
-9.059906005859375e-06
-1.4171004295349121e-05
-1.837313175201416e-05
-2.16066837310791e-05
-2.364814281463623e-05
-2.4721026420593262e-05
-2.47955322265625e-05
-2.3916363716125488e-05
-2.2202730178833008e-05
-1.9952654838562012e-05
-1.722574234008789e-05
-1.4275312423706055e-05
-1.1488795280456543e-05
-8.970499038696289e-06
-7.256865501403809e-06
-6.4373016357421875e-06
-6.943941116333008e-06
-9.045004844665527e-06
-1.2874603271484375e-05
-1.8462538719177246e-05
-2.586841583251953e-05
-3.485381603240967e-05
-4.525482654571533e-05
-5.689263343811035e-05
-6.92605972290039e-05
-8.222460746765137e-05
-9.554624557495117e-05
-0.00010888278484344482
-0.00012218952178955078
-0.00013506412506103516
-0.00014747679233551025
-0.00015923380851745605
-0.00017014145851135254
-0.00017990171909332275
-0.00018858909606933594
-0.00019587576389312744
-0.00020191073417663574
-0.00020669400691986084
-0.0002101808786392212
-0.00021257996559143066
-0.00021392107009887695
-0.00021438300609588623
-0.00021412968635559082
-0.0002132505178451538
-0.00021173059940338135
-0.000209808349609375
-0.00020736455917358398
-0.00020456314086914062
-0.00020137429237365723
-0.00019790232181549072
-0.00019407272338867188
-0.0001900792121887207
-0.00018587708473205566
-0.00018161535263061523
-0.00017733871936798096
-0.00017304718494415283
-0.00016896426677703857
-0.00016504526138305664
-0.00016145408153533936
-0.00015813112258911133
-0.0001552104949951172
-0.00015282630920410156
-0.00015084445476531982
-0.00014947354793548584
-0.00014863908290863037
-0.00014841556549072266
-0.00014878809452056885
-0.00014986097812652588
-0.00015135109424591064
-0.00015342235565185547
-0.00015586614608764648
-0.0001586824655532837
-0.0001617521047592163
-0.00016480684280395508
-0.0001678466796875
-0.0001706928014755249
-0.00017315149307250977
4.947185516357422e-05
4.8786401748657227e-05
4.877150058746338e-05
4.938244819641113e-05
5.030632019042969e-05
5.169212818145752e-05
5.315244197845459e-05
5.453824996948242e-05
5.581974983215332e-05
5.6684017181396484e-05
5.698204040527344e-05
5.652010440826416e-05
5.523860454559326e-05
5.2869319915771484e-05
4.957616329193115e-05
4.513561725616455e-05
3.972649574279785e-05
3.3468008041381836e-05
2.6553869247436523e-05
1.9162893295288086e-05
1.1593103408813477e-05
4.26173210144043e-06
-2.562999725341797e-06
-8.538365364074707e-06
-1.3455748558044434e-05
-1.7061829566955566e-05
-1.9177794456481934e-05
-1.965463161468506e-05
-1.849234104156494e-05
-1.5556812286376953e-05
-1.1071562767028809e-05
-4.9620866775512695e-06
2.4437904357910156e-06
1.1056661605834961e-05
2.0369887351989746e-05
2.9966235160827637e-05
3.93986701965332e-05
4.792213439941406e-05
5.4895877838134766e-05
5.961954593658447e-05
6.16312026977539e-05
6.034970283508301e-05
5.558133125305176e-05
4.7326087951660156e-05
3.5762786865234375e-05
2.1189451217651367e-05
4.202127456665039e-06
-1.461803913116455e-05
-3.473460674285889e-05
-5.538761615753174e-05
-7.633864879608154e-05
-9.700655937194824e-05
-0.00011706352233886719
-0.0001360177993774414
-0.00015369057655334473
-0.00016964972019195557