# vtk DataFile Version 3.0
2D PINN Solution
ASCII
DATASET STRUCTURED_GRID
DIMENSIONS 100 100 1
POINTS 10000 float
-1.0 -1.0 0.0
-0.9797979797979798 -1.0 0.0
-0.9595959595959596 -1.0 0.0
-0.9393939393939394 -1.0 0.0
-0.9191919191919192 -1.0 0.0
-0.898989898989899 -1.0 0.0
-0.8787878787878788 -1.0 0.0
-0.8585858585858586 -1.0 0.0
-0.8383838383838383 -1.0 0.0
-0.8181818181818181 -1.0 0.0
-0.797979797979798 -1.0 0.0
-0.7777777777777778 -1.0 0.0
-0.7575757575757576 -1.0 0.0
-0.7373737373737373 -1.0 0.0
-0.7171717171717171 -1.0 0.0
-0.696969696969697 -1.0 0.0
-0.6767676767676767 -1.0 0.0
-0.6565656565656566 -1.0 0.0
-0.6363636363636364 -1.0 0.0
-0.6161616161616161 -1.0 0.0
-0.5959595959595959 -1.0 0.0
-0.5757575757575757 -1.0 0.0
-0.5555555555555556 -1.0 0.0
-0.5353535353535352 -1.0 0.0
-0.5151515151515151 -1.0 0.0
-0.4949494949494949 -1.0 0.0
-0.4747474747474747 -1.0 0.0
-0.4545454545454545 -1.0 0.0
-0.43434343434343425 -1.0 0.0
-0.41414141414141414 -1.0 0.0
-0.3939393939393939 -1.0 0.0
-0.3737373737373737 -1.0 0.0
-0.3535353535353535 -1.0 0.0
-0.33333333333333326 -1.0 0.0
-0.31313131313131304 -1.0 0.0
-0.2929292929292928 -1.0 0.0
-0.2727272727272727 -1.0 0.0
-0.2525252525252525 -1.0 0.0
-0.23232323232323226 -1.0 0.0
-0.21212121212121204 -1.0 0.0
-0.19191919191919182 -1.0 0.0
-0.1717171717171716 -1.0 0.0
-0.1515151515151515 -1.0 0.0
-0.13131313131313127 -1.0 0.0
-0.11111111111111105 -1.0 0.0
-0.09090909090909083 -1.0 0.0
-0.07070707070707061 -1.0 0.0
-0.050505050505050386 -1.0 0.0
-0.030303030303030276 -1.0 0.0
-0.010101010101010055 -1.0 0.0
0.010101010101010166 -1.0 0.0
0.030303030303030498 -1.0 0.0
0.05050505050505061 -1.0 0.0
0.07070707070707072 -1.0 0.0
0.09090909090909105 -1.0 0.0
0.11111111111111116 -1.0 0.0
0.1313131313131315 -1.0 0.0
0.1515151515151516 -1.0 0.0
0.1717171717171717 -1.0 0.0
0.19191919191919204 -1.0 0.0
0.21212121212121215 -1.0 0.0
0.2323232323232325 -1.0 0.0
0.2525252525252526 -1.0 0.0
0.27272727272727293 -1.0 0.0
0.29292929292929304 -1.0 0.0
0.31313131313131315 -1.0 0.0
0.3333333333333335 -1.0 0.0
0.3535353535353536 -1.0 0.0
0.3737373737373739 -1.0 0.0
0.39393939393939403 -1.0 0.0
0.41414141414141437 -1.0 0.0
0.4343434343434345 -1.0 0.0
0.4545454545454546 -1.0 0.0
0.4747474747474749 -1.0 0.0
0.49494949494949503 -1.0 0.0
0.5151515151515154 -1.0 0.0
0.5353535353535355 -1.0 0.0
0.5555555555555556 -1.0 0.0
0.5757575757575759 -1.0 0.0
0.595959595959596 -1.0 0.0
0.6161616161616164 -1.0 0.0
0.6363636363636365 -1.0 0.0
0.6565656565656568 -1.0 0.0
0.6767676767676769 -1.0 0.0
0.696969696969697 -1.0 0.0
0.7171717171717173 -1.0 0.0
0.7373737373737375 -1.0 0.0
0.7575757575757578 -1.0 0.0
0.7777777777777779 -1.0 0.0
0.7979797979797982 -1.0 0.0
0.8181818181818183 -1.0 0.0
0.8383838383838385 -1.0 0.0
0.8585858585858588 -1.0 0.0
0.8787878787878789 -1.0 0.0
0.8989898989898992 -1.0 0.0
0.9191919191919193 -1.0 0.0
0.9393939393939394 -1.0 0.0
0.9595959595959598 -1.0 0.0
0.9797979797979799 -1.0 0.0
1.0 -1.0 0.0
-1.0 -0.9797979797979798 0.0
-0.9797979797979798 -0.9797979797979798 0.0
-0.9595959595959596 -0.9797979797979798 0.0
-0.9393939393939394 -0.9797979797979798 0.0
-0.9191919191919192 -0.9797979797979798 0.0
-0.898989898989899 -0.9797979797979798 0.0
-0.8787878787878788 -0.9797979797979798 0.0
-0.8585858585858586 -0.9797979797979798 0.0
-0.8383838383838383 -0.9797979797979798 0.0
-0.8181818181818181 -0.9797979797979798 0.0
-0.797979797979798 -0.9797979797979798 0.0
-0.7777777777777778 -0.9797979797979798 0.0
-0.7575757575757576 -0.9797979797979798 0.0
-0.7373737373737373 -0.9797979797979798 0.0
-0.7171717171717171 -0.9797979797979798 0.0
-0.696969696969697 -0.9797979797979798 0.0
-0.6767676767676767 -0.9797979797979798 0.0
-0.6565656565656566 -0.9797979797979798 0.0
-0.6363636363636364 -0.9797979797979798 0.0
-0.6161616161616161 -0.9797979797979798 0.0
-0.5959595959595959 -0.9797979797979798 0.0
-0.5757575757575757 -0.9797979797979798 0.0
-0.5555555555555556 -0.9797979797979798 0.0
-0.5353535353535352 -0.9797979797979798 0.0
-0.5151515151515151 -0.9797979797979798 0.0
-0.4949494949494949 -0.9797979797979798 0.0
-0.4747474747474747 -0.9797979797979798 0.0
-0.4545454545454545 -0.9797979797979798 0.0
-0.43434343434343425 -0.9797979797979798 0.0
-0.41414141414141414 -0.9797979797979798 0.0
-0.3939393939393939 -0.9797979797979798 0.0
-0.3737373737373737 -0.9797979797979798 0.0
-0.3535353535353535 -0.9797979797979798 0.0
-0.33333333333333326 -0.9797979797979798 0.0
-0.31313131313131304 -0.9797979797979798 0.0
-0.2929292929292928 -0.9797979797979798 0.0
-0.2727272727272727 -0.9797979797979798 0.0
-0.2525252525252525 -0.9797979797979798 0.0
-0.23232323232323226 -0.9797979797979798 0.0
-0.21212121212121204 -0.9797979797979798 0.0
-0.19191919191919182 -0.9797979797979798 0.0
-0.1717171717171716 -0.9797979797979798 0.0
-0.1515151515151515 -0.9797979797979798 0.0
-0.13131313131313127 -0.9797979797979798 0.0
-0.11111111111111105 -0.9797979797979798 0.0
-0.09090909090909083 -0.9797979797979798 0.0
-0.07070707070707061 -0.9797979797979798 0.0
-0.050505050505050386 -0.9797979797979798 0.0
-0.030303030303030276 -0.9797979797979798 0.0
-0.010101010101010055 -0.9797979797979798 0.0
0.010101010101010166 -0.9797979797979798 0.0
0.030303030303030498 -0.9797979797979798 0.0
0.05050505050505061 -0.9797979797979798 0.0
0.07070707070707072 -0.9797979797979798 0.0
0.09090909090909105 -0.9797979797979798 0.0
0.11111111111111116 -0.9797979797979798 0.0
0.1313131313131315 -0.9797979797979798 0.0
0.1515151515151516 -0.9797979797979798 0.0
0.1717171717171717 -0.9797979797979798 0.0
0.19191919191919204 -0.9797979797979798 0.0
0.21212121212121215 -0.9797979797979798 0.0
0.2323232323232325 -0.9797979797979798 0.0
0.2525252525252526 -0.9797979797979798 0.0
0.27272727272727293 -0.9797979797979798 0.0
0.29292929292929304 -0.9797979797979798 0.0
0.31313131313131315 -0.9797979797979798 0.0
0.3333333333333335 -0.9797979797979798 0.0
0.3535353535353536 -0.9797979797979798 0.0
0.3737373737373739 -0.9797979797979798 0.0
0.39393939393939403 -0.9797979797979798 0.0
0.41414141414141437 -0.9797979797979798 0.0
0.4343434343434345 -0.9797979797979798 0.0
0.4545454545454546 -0.9797979797979798 0.0
0.4747474747474749 -0.9797979797979798 0.0
0.49494949494949503 -0.9797979797979798 0.0
0.5151515151515154 -0.9797979797979798 0.0
0.5353535353535355 -0.9797979797979798 0.0
0.5555555555555556 -0.9797979797979798 0.0
0.5757575757575759 -0.9797979797979798 0.0
0.595959595959596 -0.9797979797979798 0.0
0.6161616161616164 -0.9797979797979798 0.0
0.6363636363636365 -0.9797979797979798 0.0
0.6565656565656568 -0.9797979797979798 0.0
0.6767676767676769 -0.9797979797979798 0.0
0.696969696969697 -0.9797979797979798 0.0
0.7171717171717173 -0.9797979797979798 0.0
0.7373737373737375 -0.9797979797979798 0.0
0.7575757575757578 -0.9797979797979798 0.0
0.7777777777777779 -0.9797979797979798 0.0
0.7979797979797982 -0.9797979797979798 0.0
0.8181818181818183 -0.9797979797979798 0.0
0.8383838383838385 -0.9797979797979798 0.0
0.8585858585858588 -0.9797979797979798 0.0
0.8787878787878789 -0.9797979797979798 0.0
0.8989898989898992 -0.9797979797979798 0.0
0.9191919191919193 -0.9797979797979798 0.0
0.9393939393939394 -0.9797979797979798 0.0
0.9595959595959598 -0.9797979797979798 0.0
0.9797979797979799 -0.9797979797979798 0.0
1.0 -0.9797979797979798 0.0
-1.0 -0.9595959595959596 0.0
-0.9797979797979798 -0.9595959595959596 0.0
-0.9595959595959596 -0.9595959595959596 0.0
-0.9393939393939394 -0.9595959595959596 0.0
-0.9191919191919192 -0.9595959595959596 0.0
-0.898989898989899 -0.9595959595959596 0.0
-0.8787878787878788 -0.9595959595959596 0.0
-0.8585858585858586 -0.9595959595959596 0.0
-0.8383838383838383 -0.9595959595959596 0.0
-0.8181818181818181 -0.9595959595959596 0.0
-0.797979797979798 -0.9595959595959596 0.0
-0.7777777777777778 -0.9595959595959596 0.0
-0.7575757575757576 -0.9595959595959596 0.0
-0.7373737373737373 -0.9595959595959596 0.0
-0.7171717171717171 -0.9595959595959596 0.0
-0.696969696969697 -0.9595959595959596 0.0
-0.6767676767676767 -0.9595959595959596 0.0
-0.6565656565656566 -0.9595959595959596 0.0
-0.6363636363636364 -0.9595959595959596 0.0
-0.6161616161616161 -0.9595959595959596 0.0
-0.5959595959595959 -0.9595959595959596 0.0
-0.5757575757575757 -0.9595959595959596 0.0
-0.5555555555555556 -0.9595959595959596 0.0
-0.5353535353535352 -0.9595959595959596 0.0
-0.5151515151515151 -0.9595959595959596 0.0
-0.4949494949494949 -0.9595959595959596 0.0
-0.4747474747474747 -0.9595959595959596 0.0
-0.4545454545454545 -0.9595959595959596 0.0
-0.43434343434343425 -0.9595959595959596 0.0
-0.41414141414141414 -0.9595959595959596 0.0
-0.3939393939393939 -0.9595959595959596 0.0
-0.3737373737373737 -0.9595959595959596 0.0
-0.3535353535353535 -0.9595959595959596 0.0
-0.33333333333333326 -0.9595959595959596 0.0
-0.31313131313131304 -0.9595959595959596 0.0
-0.2929292929292928 -0.9595959595959596 0.0
-0.2727272727272727 -0.9595959595959596 0.0
-0.2525252525252525 -0.9595959595959596 0.0
-0.23232323232323226 -0.9595959595959596 0.0
-0.21212121212121204 -0.9595959595959596 0.0
-0.19191919191919182 -0.9595959595959596 0.0
-0.1717171717171716 -0.9595959595959596 0.0
-0.1515151515151515 -0.9595959595959596 0.0
-0.13131313131313127 -0.9595959595959596 0.0
-0.11111111111111105 -0.9595959595959596 0.0
-0.09090909090909083 -0.9595959595959596 0.0
-0.07070707070707061 -0.9595959595959596 0.0
-0.050505050505050386 -0.9595959595959596 0.0
-0.030303030303030276 -0.9595959595959596 0.0
-0.010101010101010055 -0.9595959595959596 0.0
0.010101010101010166 -0.9595959595959596 0.0
0.030303030303030498 -0.9595959595959596 0.0
0.05050505050505061 -0.9595959595959596 0.0
0.07070707070707072 -0.9595959595959596 0.0
0.09090909090909105 -0.9595959595959596 0.0
0.11111111111111116 -0.9595959595959596 0.0
0.1313131313131315 -0.9595959595959596 0.0
0.1515151515151516 -0.9595959595959596 0.0
0.1717171717171717 -0.9595959595959596 0.0
0.19191919191919204 -0.9595959595959596 0.0
0.21212121212121215 -0.9595959595959596 0.0
[...]
POINT_DATA 10000
SCALARS u float 1
LOOKUP_TABLE default
3.0294060707092285e-05
2.6851892471313477e-05
2.421438694000244e-05
2.230703830718994e-05
2.1189451217651367e-05
2.0816922187805176e-05
2.0936131477355957e-05
2.1636486053466797e-05
2.2873282432556152e-05
2.4497509002685547e-05
2.644956111907959e-05
2.8580427169799805e-05
3.091990947723389e-05
3.331899642944336e-05
3.5569071769714355e-05
3.775954246520996e-05
3.960728645324707e-05
4.118680953979492e-05
4.2244791984558105e-05
4.284083843231201e-05
4.278123378753662e-05
4.217028617858887e-05
4.100799560546875e-05
3.921985626220703e-05
3.688037395477295e-05
3.395974636077881e-05
3.071129322052002e-05
2.714991569519043e-05
2.3379921913146973e-05
1.9431114196777344e-05
1.5676021575927734e-05
1.1876225471496582e-05
8.32974910736084e-06
5.081295967102051e-06
2.0563602447509766e-06
-5.811452865600586e-07
-2.9802322387695312e-06
-5.0514936447143555e-06
-7.063150405883789e-06
-8.955597877502441e-06
-1.0848045349121094e-05
-1.290440559387207e-05
-1.5243887901306152e-05
-1.7881393432617188e-05
-2.0936131477355957e-05
-2.44826078414917e-05
-2.841651439666748e-05
-3.2767653465270996e-05
-3.7416815757751465e-05
-4.228949546813965e-05
-4.7013163566589355e-05
-5.161762237548828e-05
-5.581974983215332e-05
-5.9470534324645996e-05
-6.240606307983398e-05
-6.459653377532959e-05
-6.604194641113281e-05
-6.662309169769287e-05
-6.660819053649902e-05
-6.61015510559082e-05
-6.535649299621582e-05
-6.459653377532959e-05
-6.413459777832031e-05
-6.407499313354492e-05
-6.4849853515625e-05
-6.6414475440979e-05
-6.902217864990234e-05
-7.246434688568115e-05
-7.69197940826416e-05
-8.197128772735596e-05
-8.758902549743652e-05
-9.34302806854248e-05
-9.939074516296387e-05
-0.00010511279106140137
-0.00011040270328521729
-0.00011508166790008545
-0.00011909008026123047
-0.0001224428415298462
-0.00012513995170593262
-0.00012731552124023438
-0.00012899935245513916
-0.00013053417205810547
-0.00013193488121032715
-0.00013339519500732422
-0.00013500452041625977
-0.00013706088066101074
-0.0001394897699356079
-0.00014220178127288818
-0.0001455247402191162
-0.00014923512935638428
-0.00015333294868469238
-0.00015772879123687744
-0.00016233325004577637
-0.00016711652278900146
-0.00017192959785461426
-0.0001767277717590332
-0.00018136203289031982
-0.00018568336963653564
-0.00018969178199768066
-0.0001932978630065918
3.331899642944336e-05
3.038346767425537e-05
2.82973051071167e-05
2.7000904083251953e-05
2.6464462280273438e-05
2.6524066925048828e-05
2.7239322662353516e-05
2.8520822525024414e-05
3.0294060707092285e-05
3.2395124435424805e-05
3.485381603240967e-05
3.750622272491455e-05
4.0277838706970215e-05
4.3064355850219727e-05
4.565715789794922e-05
4.811584949493408e-05
5.0202012062072754e-05
5.187094211578369e-05
5.295872688293457e-05
5.342066287994385e-05
5.321204662322998e-05
5.233287811279297e-05
5.066394805908203e-05
4.83393669128418e-05
4.5418739318847656e-05
4.182755947113037e-05
3.789365291595459e-05
3.3602118492126465e-05
2.9131770133972168e-05
2.4572014808654785e-05
2.014636993408203e-05
1.5974044799804688e-05
1.208484172821045e-05
8.568167686462402e-06
5.4836273193359375e-06
2.8014183044433594e-06
6.705522537231445e-07
-1.1324882507324219e-06
-2.652406692504883e-06
-3.904104232788086e-06
-5.140900611877441e-06
-6.407499313354492e-06
-7.912516593933105e-06
-9.775161743164062e-06
-1.2055039405822754e-05
-1.4886260032653809e-05
-1.831352710723877e-05
-2.22623348236084e-05
-2.6717782020568848e-05
-3.1560659408569336e-05
-3.6582350730895996e-05
-4.16487455368042e-05
-4.652142524719238e-05
-5.097687244415283e-05
-5.479156970977783e-05
-5.7891011238098145e-05
-6.012618541717529e-05
-6.154179573059082e-05
-6.210803985595703e-05
-6.209313869476318e-05
-6.154179573059082e-05
-6.0811638832092285e-05
-6.014108657836914e-05
-5.982816219329834e-05
-6.012618541717529e-05
-6.119906902313232e-05
-6.32554292678833e-05
-6.638467311859131e-05
-7.05420970916748e-05
-7.545948028564453e-05
-8.125603199005127e-05
-8.735060691833496e-05
-9.360909461975098e-05
-9.98377799987793e-05
-0.00010575354099273682
-0.00011111795902252197
-0.00011582672595977783
-0.000119820237159729
-0.0001230388879776001
-0.00012567639350891113
-0.00012770295143127441
-0.00012943148612976074
-0.0001309216022491455
-0.00013235211372375488
-0.00013387203216552734
-0.00013571977615356445
-0.0001379251480102539
-0.00014047324657440186
-0.00014349818229675293
-0.0001469254493713379
-0.00015075504779815674
-0.00015494227409362793
-0.00015939772129058838
-0.000164031982421875
-0.00016868114471435547
-0.00017338991165161133
-0.0001779496669769287
-0.00018227100372314453
-0.00018636882305145264
-0.00019003450870513916
3.6463141441345215e-05
3.407895565032959e-05
3.238022327423096e-05
3.1575560569763184e-05
3.14861536026001e-05
3.2067298889160156e-05
3.3229589462280273e-05
3.503262996673584e-05
3.723800182342529e-05
3.984570503234863e-05
4.278123378753662e-05
4.582107067108154e-05
4.900991916656494e-05
5.21540641784668e-05
5.5089592933654785e-05
5.780160427093506e-05
6.00963830947876e-05
6.183981895446777e-05
6.292760372161865e-05
6.324052810668945e-05
6.280839443206787e-05
6.154179573059082e-05
5.94407320022583e-05
5.65946102142334e-05
5.2928924560546875e-05
4.868209362030029e-05
4.3973326683044434e-05
3.8936734199523926e-05
3.37064266204834e-05
2.8461217880249023e-05
2.346932888031006e-05
1.8671154975891113e-05
1.4349818229675293e-05
1.0505318641662598e-05
7.316470146179199e-06
4.678964614868164e-06
2.6673078536987305e-06
1.2069940567016602e-06
2.2351741790771484e-07
-4.6193599700927734e-07
-9.08970832824707e-07
-1.3709068298339844e-06
-1.9222497940063477e-06
-2.7865171432495117e-06
-4.112720489501953e-06
-6.020069122314453e-06
-8.687376976013184e-06
-1.2055039405822754e-05
-1.615285873413086e-05
-2.0802021026611328e-05
-2.594292163848877e-05
-3.133714199066162e-05
-3.682076930999756e-05
-4.2051076889038086e-05
-4.677474498748779e-05
-5.085766315460205e-05
-5.409121513366699e-05
-5.644559860229492e-05
-5.7831406593322754e-05
-5.848705768585205e-05
-5.835294723510742e-05
-5.7891011238098145e-05
-5.7250261306762695e-05
-5.672872066497803e-05
-5.6743621826171875e-05
-5.7369470596313477e-05
-5.899369716644287e-05
-6.158649921417236e-05
-6.535649299621582e-05
-7.006525993347168e-05
-7.562339305877686e-05
-8.180737495422363e-05
-8.840858936309814e-05
-9.50247049331665e-05
-0.00010134279727935791
-0.00010724365711212158
-0.00011259317398071289
-0.00011704862117767334
-0.00012083351612091064
-0.00012387335300445557
-0.00012627243995666504
-0.00012817978858947754
-0.0001297295093536377
-0.00013116002082824707
-0.00013265013694763184
-0.00013434886932373047
-0.00013628602027893066
-0.00013859570026397705
-0.00014135241508483887
-0.00014451146125793457
-0.00014813244342803955
-0.00015208125114440918
-0.00015632808208465576
-0.00016079843044281006
-0.0001653730869293213
-0.00016991794109344482
-0.0001745074987411499
-0.00017881393432617188
-0.00018292665481567383
-0.0001866370439529419
3.960728645324707e-05
3.7550926208496094e-05
3.635883331298828e-05
3.5881996154785156e-05
3.619492053985596e-05
3.7223100662231445e-05
3.878772258758545e-05
4.088878631591797e-05
4.3511390686035156e-05
4.652142524719238e-05
4.978477954864502e-05
5.3241848945617676e-05
5.677342414855957e-05
6.020069122314453e-05
6.346404552459717e-05
6.635487079620361e-05
6.875395774841309e-05
7.055699825286865e-05
7.160007953643799e-05
7.177889347076416e-05
7.100403308868408e-05
6.939470767974854e-05
6.677210330963135e-05
6.330013275146484e-05
5.900859832763672e-05
5.404651165008545e-05
4.857778549194336e-05
4.2751431465148926e-05
3.680586814880371e-05
3.090500831604004e-05
2.5257468223571777e-05
1.9982457160949707e-05
1.5288591384887695e-05
1.1280179023742676e-05
7.957220077514648e-06
5.424022674560547e-06
3.725290298461914e-06
2.7567148208618164e-06
2.3096799850463867e-06
2.4437904357910156e-06
2.9802322387695312e-06
3.5762786865234375e-06
4.187226295471191e-06
4.544854164123535e-06
4.470348358154297e-06
3.6656856536865234e-06
2.0712614059448242e-06
-5.513429641723633e-07
-4.0531158447265625e-06
-8.463859558105469e-06
-1.3723969459533691e-05
-1.9595026969909668e-05
-2.5779008865356445e-05
-3.203749656677246e-05
-3.796815872192383e-05
-4.337728023529053e-05
-4.801154136657715e-05
-5.169212818145752e-05
-5.43743371963501e-05
-5.6043267250061035e-05
-5.678832530975342e-05
-5.683302879333496e-05
-5.650520324707031e-05
-5.608797073364258e-05
-5.581974983215332e-05
-5.6162476539611816e-05
-5.7250261306762695e-05
-5.936622619628906e-05
-6.254017353057861e-05
-6.680190563201904e-05
-7.203221321105957e-05
-7.805228233337402e-05
-8.45491886138916e-05
-9.125471115112305e-05
-9.79304313659668e-05
-0.00010415911674499512
-0.00010991096496582031
-0.00011482834815979004
-0.00011897087097167969
-0.0001223534345626831
-0.00012499094009399414
-0.0001270771026611328
-0.00012871623039245605
-0.00013016164302825928
-0.00013150274753570557
-0.00013297796249389648
-0.00013475120067596436
-0.00013679265975952148
-0.0001392960548400879
-0.0001421719789505005
-0.00014549493789672852
-0.0001491755247116089
-0.0001532137393951416
-0.00015750527381896973
-0.00016194581985473633
-0.00016646087169647217
-0.0001710057258605957
-0.00017534196376800537
-0.00017951428890228271
-0.00018326938152313232
4.267692565917969e-05
4.0844082832336426e-05
3.9890408515930176e-05
3.975629806518555e-05
4.0337443351745605e-05
4.1604042053222656e-05
4.3511390686035156e-05
4.591047763824463e-05
4.881620407104492e-05
5.207955837249756e-05
5.5655837059020996e-05
5.939602851867676e-05
6.313621997833252e-05
6.681680679321289e-05
7.0229172706604e-05
7.332861423492432e-05
7.578730583190918e-05
7.75456428527832e-05
7.849931716918945e-05
7.84844160079956e-05
7.748603820800781e-05
7.539987564086914e-05
7.228553295135498e-05
6.821751594543457e-05
6.324052810668945e-05
5.754828453063965e-05
5.1334500312805176e-05
4.486739635467529e-05
3.832578659057617e-05
3.185868263244629e-05
2.574920654296875e-05
2.014636993408203e-05
1.5303492546081543e-05
1.1339783668518066e-05
8.27014446258545e-06
6.213784217834473e-06
5.0514936447143555e-06
4.842877388000488e-06
5.558133125305176e-06
7.033348083496094e-06
8.89599323272705e-06
1.1235475540161133e-05
1.3589859008789062e-05
1.5735626220703125e-05
1.7449259757995605e-05
1.8358230590820312e-05
1.817941665649414e-05
1.679360866546631e-05
1.3977289199829102e-05
9.700655937194824e-06
4.157423973083496e-06
-2.5033950805664062e-06
-1.0013580322265625e-05
-1.7940998077392578e-05
-2.5928020477294922e-05
-3.3527612686157227e-05
-4.045665264129639e-05
-4.64320182800293e-05
-5.11854887008667e-05
-5.4642558097839355e-05
-5.689263343811035e-05
-5.81890344619751e-05
-5.866587162017822e-05
-5.863606929779053e-05
-5.8531761169433594e-05
-5.868077278137207e-05
-5.9351325035095215e-05
-6.082653999328613e-05
-6.335973739624023e-05
-6.696581840515137e-05
-7.15404748916626e-05
-7.700920104980469e-05
-8.311867713928223e-05
-8.963048458099365e-05
-9.614229202270508e-05
-0.00010253489017486572
-0.00010831654071807861
-0.00011348724365234375
-0.00011789798736572266
-0.0001214444637298584
-0.0001242309808731079
-0.00012642145156860352
-0.00012809038162231445
-0.00012946128845214844
-0.0001306682825088501
-0.00013193488121032715
-0.00013336539268493652
-0.00013515353202819824
-0.0001373589038848877
-0.00013990700244903564
-0.00014290213584899902
-0.00014634430408477783
-0.00015015900135040283
-0.00015425682067871094
-0.00015854835510253906
-0.0001630038022994995
-0.00016739964485168457
-0.00017176568508148193
-0.00017595291137695312
-0.00017982721328735352
4.534423351287842e-05
4.3764710426330566e-05
4.3004751205444336e-05
4.304945468902588e-05
4.380941390991211e-05
4.521012306213379e-05
4.7340989112854004e-05
4.988908767700195e-05
5.2928924560546875e-05
5.6356191635131836e-05
6.008148193359375e-05
6.398558616638184e-05
6.785988807678223e-05
7.164478302001953e-05
7.516145706176758e-05
7.829070091247559e-05
8.07642936706543e-05
8.244812488555908e-05
8.322298526763916e-05
8.29845666885376e-05
8.159875869750977e-05
7.911026477813721e-05
7.544457912445068e-05
7.081031799316406e-05
6.525218486785889e-05
5.8963894844055176e-05
5.221366882324219e-05
4.522502422332764e-05
3.820657730102539e-05
3.147125244140625e-05
2.5317072868347168e-05
1.9788742065429688e-05
1.5243887901306152e-05
1.1771917343139648e-05
9.462237358093262e-06
8.493661880493164e-06
8.732080459594727e-06
1.0281801223754883e-05
1.2964010238647461e-05
1.6689300537109375e-05
2.1263957023620605e-05
2.644956111907959e-05
3.1828880310058594e-05
3.714859485626221e-05
4.1872262954711914e-05
4.556775093078613e-05
4.786252975463867e-05
4.8294663429260254e-05
4.659593105316162e-05
4.267692565917969e-05
3.647804260253906e-05
2.82973051071167e-05
1.8358230590820312e-05
7.256865501403809e-06
-4.380941390991211e-06
-1.5974044799804688e-05
-2.7000904083251953e-05
-3.692507743835449e-05
-4.54634428024292e-05
-5.237758159637451e-05
-5.75333833694458e-05
-6.115436553955078e-05
-6.335973739624023e-05
-6.464123725891113e-05
-6.517767906188965e-05
-6.55055046081543e-05
-6.595253944396973e-05
-6.696581840515137e-05
-6.866455078125e-05
-7.140636444091797e-05
-7.510185241699219e-05
-7.970631122589111e-05
-8.504092693328857e-05
-9.08970832824707e-05
-9.702146053314209e-05
-0.0001029670238494873
-0.00010864436626434326
-0.00011366605758666992
-0.00011801719665527344
-0.00012157857418060303
-0.0001243799924850464
-0.00012652575969696045
-0.0001281052827835083
-0.00012925267219543457
-0.0001302659511566162
-0.00013130903244018555
-0.00013241171836853027
-0.0001338571310043335
-0.00013566017150878906
-0.00013791024684906006
-0.0001405477523803711
-0.00014372169971466064
-0.0001471787691116333
-0.0001510828733444214
-0.00015525519847869873
-0.00015954673290252686
-0.00016386806964874268
-0.0001682192087173462
-0.00017242133617401123
-0.0001763850450515747
4.769861698150635e-05
4.6253204345703125e-05
4.5627355575561523e-05
4.570186138153076e-05
4.6506524085998535e-05
4.79966402053833e-05
5.005300045013428e-05
5.272030830383301e-05
5.580484867095947e-05
5.9217214584350586e-05
6.295740604400635e-05
6.681680679321289e-05
7.078051567077637e-05
7.453560829162598e-05
7.802248001098633e-05
8.100271224975586e-05
8.331239223480225e-05
8.492171764373779e-05
8.538365364074707e-05
8.480250835418701e-05
8.305907249450684e-05
8.006393909454346e-05
7.59810209274292e-05
7.082521915435791e-05
6.476044654846191e-05
5.811452865600586e-05
5.099177360534668e-05
4.3779611587524414e-05
3.6716461181640625e-05
3.0174851417541504e-05
2.4378299713134766e-05
1.9669532775878906e-05
1.6123056411743164e-05
1.4036893844604492e-05
1.3530254364013672e-05
1.4692544937133789e-05
1.761317253112793e-05
2.2336840629577637e-05
2.8759241104125977e-05
3.680586814880371e-05
4.6119093894958496e-05
5.657970905303955e-05
6.756186485290527e-05
7.8544020652771e-05
8.897483348846436e-05
9.79304313659668e-05
0.00010481476783752441
0.00010880827903747559
0.00010941922664642334
0.00010614097118377686
9.891390800476074e-05
8.811056613922119e-05
7.392466068267822e-05
5.7324767112731934e-05
3.910064697265625e-05
2.0295381546020508e-05
1.817941665649414e-06
-1.545250415802002e-05
-3.0875205993652344e-05
-4.398822784423828e-05
-5.46872615814209e-05
-6.282329559326172e-05
-6.864964962005615e-05
-7.253885269165039e-05
-7.496774196624756e-05
-7.62641429901123e-05
-7.708370685577393e-05
-7.787346839904785e-05
-7.903575897216797e-05
-8.074939250946045e-05
-8.331239223480225e-05
-8.673965930938721e-05
-9.088218212127686e-05
-9.575486183166504e-05
-0.00010091066360473633
-0.00010617077350616455
-0.0001112222671508789
-0.00011581182479858398
-0.0001198500394821167
-0.00012315809726715088
-0.00012570619583129883
-0.00012762844562530518
-0.00012892484664916992
-0.00012989342212677002
-0.00013059377670288086
-0.0001312345266342163
-0.000131949782371521
-0.00013302266597747803
-0.000134393572807312
-0.00013624131679534912
-0.0001385211944580078
-0.00014129281044006348
-0.00014449656009674072
-0.00014810264110565186
-0.00015200674533843994
-0.00015610456466674805
-0.00016036629676818848
-0.0001647472381591797
-0.00016894936561584473
-0.0001729726791381836
4.966557025909424e-05
4.820525646209717e-05
4.7519803047180176e-05
4.762411117553711e-05
4.838407039642334e-05
4.984438419342041e-05
5.1781535148620605e-05
5.429983139038086e-05
5.723536014556885e-05
6.063282489776611e-05
6.420910358428955e-05
6.788969039916992e-05
7.165968418121338e-05
7.522106170654297e-05
7.852911949157715e-05
8.128583431243896e-05
8.337199687957764e-05
8.448958396911621e-05
8.468329906463623e-05
8.369982242584229e-05
8.152425289154053e-05
7.806718349456787e-05
7.356703281402588e-05
6.802380084991455e-05
6.167590618133545e-05
5.4836273193359375e-05
4.774332046508789e-05
4.081428050994873e-05
3.434717655181885e-05
2.8654932975769043e-05
2.4080276489257812e-05
2.0936131477355957e-05
1.9535422325134277e-05
2.0056962966918945e-05
2.276897430419922e-05
2.7880072593688965e-05
3.559887409210205e-05
4.5940279960632324e-05
5.8963894844055176e-05
7.461011409759521e-05
9.258091449737549e-05
0.00011245906352996826
0.00013367831707000732
0.00015532970428466797
0.00017629563808441162
0.00019536912441253662
0.0002111494541168213
0.00022238492965698242
0.00022782385349273682
0.00022673606872558594
0.00021867454051971436
0.00020375847816467285
0.00018265843391418457
0.00015659630298614502
0.00012697279453277588
9.550154209136963e-05
6.373226642608643e-05
3.3289194107055664e-05
5.334615707397461e-06
-1.919269561767578e-05
-3.992021083831787e-05
-5.6549906730651855e-05
-6.936490535736084e-05
-7.864832878112793e-05
-8.495151996612549e-05
-8.893013000488281e-05
-9.137392044067383e-05
-9.275972843170166e-05
-9.372830390930176e-05
-9.478628635406494e-05
-9.618699550628662e-05
-9.831786155700684e-05
-0.00010107457637786865
-0.00010445713996887207
-0.00010827183723449707
-0.00011242926120758057
-0.00011646747589111328
-0.00012028217315673828
-0.0001235753297805786
-0.00012636184692382812
-0.0001284480094909668
-0.00012990832328796387
-0.00013086199760437012
-0.00013141334056854248
-0.00013169646263122559
-0.0001318901777267456
-0.0001321732997894287
-0.00013276934623718262
-0.00013373792171478271
-0.00013503432273864746
-0.00013691186904907227
-0.00013928115367889404
-0.00014212727546691895
-0.00014537572860717773
-0.00014904141426086426
-0.00015300512313842773
-0.00015713274478912354
-0.00016137957572937012
-0.00016561150550842285
-0.00016967952251434326
5.125999450683594e-05
4.9680471420288086e-05
4.890561103820801e-05
4.883110523223877e-05
4.947185516357422e-05
5.067884922027588e-05
5.2422285079956055e-05
5.4776668548583984e-05
5.747377872467041e-05
6.048381328582764e-05
6.371736526489258e-05
6.711483001708984e-05
7.051229476928711e-05
7.371604442596436e-05
7.662177085876465e-05
7.899105548858643e-05
8.051097393035889e-05
8.131563663482666e-05
8.097290992736816e-05
7.94827938079834e-05
7.683038711547852e-05
7.303059101104736e-05
6.815791130065918e-05
6.246566772460938e-05
5.6177377700805664e-05
4.9561262130737305e-05
4.3019652366638184e-05
3.699958324432373e-05
3.1828880310058594e-05
2.7865171432495117e-05
2.5600194931030273e-05
2.530217170715332e-05
2.740323543548584e-05
3.236532211303711e-05
4.0397047996520996e-05
5.2034854888916016e-05
6.762146949768066e-05
8.74549150466919e-05
0.00011157989501953125
0.00014021992683410645
0.00017318129539489746
0.00020970404148101807
0.0002490431070327759
0.00028990209102630615
0.0003303438425064087
0.0003683120012283325
0.0004013627767562866
0.00042703747749328613
0.0004430115222930908
0.00044770538806915283
0.0004399716854095459
0.00041975080966949463
0.00038802623748779297
0.0003465414047241211
0.00029768049716949463
0.00024440884590148926
0.00018963217735290527
0.00013606250286102295
8.594989776611328e-05
4.100799560546875e-05
2.2798776626586914e-06
-2.9906630516052246e-05
-5.5462121963500977e-05
-7.50124454498291e-05
-8.921325206756592e-05
-9.892880916595459e-05
-0.00010523200035095215
-0.00010891258716583252
-0.0001109689474105835
-0.00011208653450012207
-0.00011292099952697754
-0.0001138448715209961