# vtk DataFile Version 3.0
2D PINN Solution
ASCII
DATASET STRUCTURED_GRID
DIMENSIONS 100 100 1
POINTS 10000 float
-1.0 -1.0 0.0
-0.9797979797979798 -1.0 0.0
-0.9595959595959596 -1.0 0.0
-0.9393939393939394 -1.0 0.0
-0.9191919191919192 -1.0 0.0
-0.898989898989899 -1.0 0.0
-0.8787878787878788 -1.0 0.0
-0.8585858585858586 -1.0 0.0
-0.8383838383838383 -1.0 0.0
-0.8181818181818181 -1.0 0.0
-0.797979797979798 -1.0 0.0
-0.7777777777777778 -1.0 0.0
-0.7575757575757576 -1.0 0.0
-0.7373737373737373 -1.0 0.0
-0.7171717171717171 -1.0 0.0
-0.696969696969697 -1.0 0.0
-0.6767676767676767 -1.0 0.0
-0.6565656565656566 -1.0 0.0
-0.6363636363636364 -1.0 0.0
-0.6161616161616161 -1.0 0.0
-0.5959595959595959 -1.0 0.0
-0.5757575757575757 -1.0 0.0
-0.5555555555555556 -1.0 0.0
-0.5353535353535352 -1.0 0.0
-0.5151515151515151 -1.0 0.0
-0.4949494949494949 -1.0 0.0
-0.4747474747474747 -1.0 0.0
-0.4545454545454545 -1.0 0.0
-0.43434343434343425 -1.0 0.0
-0.41414141414141414 -1.0 0.0
-0.3939393939393939 -1.0 0.0
-0.3737373737373737 -1.0 0.0
-0.3535353535353535 -1.0 0.0
-0.33333333333333326 -1.0 0.0
-0.31313131313131304 -1.0 0.0
-0.2929292929292928 -1.0 0.0
-0.2727272727272727 -1.0 0.0
-0.2525252525252525 -1.0 0.0
-0.23232323232323226 -1.0 0.0
-0.21212121212121204 -1.0 0.0
-0.19191919191919182 -1.0 0.0
-0.1717171717171716 -1.0 0.0
-0.1515151515151515 -1.0 0.0
-0.13131313131313127 -1.0 0.0
-0.11111111111111105 -1.0 0.0
-0.09090909090909083 -1.0 0.0
-0.07070707070707061 -1.0 0.0
-0.050505050505050386 -1.0 0.0
-0.030303030303030276 -1.0 0.0
-0.010101010101010055 -1.0 0.0
0.010101010101010166 -1.0 0.0
0.030303030303030498 -1.0 0.0
0.05050505050505061 -1.0 0.0
0.07070707070707072 -1.0 0.0
0.09090909090909105 -1.0 0.0
0.11111111111111116 -1.0 0.0
0.1313131313131315 -1.0 0.0
0.1515151515151516 -1.0 0.0
0.1717171717171717 -1.0 0.0
0.19191919191919204 -1.0 0.0
0.21212121212121215 -1.0 0.0
0.2323232323232325 -1.0 0.0
0.2525252525252526 -1.0 0.0
0.27272727272727293 -1.0 0.0
0.29292929292929304 -1.0 0.0
0.31313131313131315 -1.0 0.0
0.3333333333333335 -1.0 0.0
0.3535353535353536 -1.0 0.0
0.3737373737373739 -1.0 0.0
0.39393939393939403 -1.0 0.0
0.41414141414141437 -1.0 0.0
0.4343434343434345 -1.0 0.0
0.4545454545454546 -1.0 0.0
0.4747474747474749 -1.0 0.0
0.49494949494949503 -1.0 0.0
0.5151515151515154 -1.0 0.0
0.5353535353535355 -1.0 0.0
0.5555555555555556 -1.0 0.0
0.5757575757575759 -1.0 0.0
0.595959595959596 -1.0 0.0
0.6161616161616164 -1.0 0.0
0.6363636363636365 -1.0 0.0
0.6565656565656568 -1.0 0.0
0.6767676767676769 -1.0 0.0
0.696969696969697 -1.0 0.0
0.7171717171717173 -1.0 0.0
0.7373737373737375 -1.0 0.0
0.7575757575757578 -1.0 0.0
0.7777777777777779 -1.0 0.0
0.7979797979797982 -1.0 0.0
0.8181818181818183 -1.0 0.0
0.8383838383838385 -1.0 0.0
0.8585858585858588 -1.0 0.0
0.8787878787878789 -1.0 0.0
0.8989898989898992 -1.0 0.0
0.9191919191919193 -1.0 0.0
0.9393939393939394 -1.0 0.0
0.9595959595959598 -1.0 0.0
0.9797979797979799 -1.0 0.0
1.0 -1.0 0.0
-1.0 -0.9797979797979798 0.0
-0.9797979797979798 -0.9797979797979798 0.0
-0.9595959595959596 -0.9797979797979798 0.0
-0.9393939393939394 -0.9797979797979798 0.0
-0.9191919191919192 -0.9797979797979798 0.0
-0.898989898989899 -0.9797979797979798 0.0
-0.8787878787878788 -0.9797979797979798 0.0
-0.8585858585858586 -0.9797979797979798 0.0
-0.8383838383838383 -0.9797979797979798 0.0
-0.8181818181818181 -0.9797979797979798 0.0
-0.797979797979798 -0.9797979797979798 0.0
-0.7777777777777778 -0.9797979797979798 0.0
-0.7575757575757576 -0.9797979797979798 0.0
-0.7373737373737373 -0.9797979797979798 0.0
-0.7171717171717171 -0.9797979797979798 0.0
-0.696969696969697 -0.9797979797979798 0.0
-0.6767676767676767 -0.9797979797979798 0.0
-0.6565656565656566 -0.9797979797979798 0.0
-0.6363636363636364 -0.9797979797979798 0.0
-0.6161616161616161 -0.9797979797979798 0.0
-0.5959595959595959 -0.9797979797979798 0.0
-0.5757575757575757 -0.9797979797979798 0.0
-0.5555555555555556 -0.9797979797979798 0.0
-0.5353535353535352 -0.9797979797979798 0.0
-0.5151515151515151 -0.9797979797979798 0.0
-0.4949494949494949 -0.9797979797979798 0.0
-0.4747474747474747 -0.9797979797979798 0.0
-0.4545454545454545 -0.9797979797979798 0.0
-0.43434343434343425 -0.9797979797979798 0.0
-0.41414141414141414 -0.9797979797979798 0.0
-0.3939393939393939 -0.9797979797979798 0.0
-0.3737373737373737 -0.9797979797979798 0.0
-0.3535353535353535 -0.9797979797979798 0.0
-0.33333333333333326 -0.9797979797979798 0.0
-0.31313131313131304 -0.9797979797979798 0.0
-0.2929292929292928 -0.9797979797979798 0.0
-0.2727272727272727 -0.9797979797979798 0.0
-0.2525252525252525 -0.9797979797979798 0.0
-0.23232323232323226 -0.9797979797979798 0.0
-0.21212121212121204 -0.9797979797979798 0.0
-0.19191919191919182 -0.9797979797979798 0.0
-0.1717171717171716 -0.9797979797979798 0.0
-0.1515151515151515 -0.9797979797979798 0.0
-0.13131313131313127 -0.9797979797979798 0.0
-0.11111111111111105 -0.9797979797979798 0.0
-0.09090909090909083 -0.9797979797979798 0.0
-0.07070707070707061 -0.9797979797979798 0.0
-0.050505050505050386 -0.9797979797979798 0.0
-0.030303030303030276 -0.9797979797979798 0.0
-0.010101010101010055 -0.9797979797979798 0.0
0.010101010101010166 -0.9797979797979798 0.0
0.030303030303030498 -0.9797979797979798 0.0
0.05050505050505061 -0.9797979797979798 0.0
0.07070707070707072 -0.9797979797979798 0.0
0.09090909090909105 -0.9797979797979798 0.0
0.11111111111111116 -0.9797979797979798 0.0
0.1313131313131315 -0.9797979797979798 0.0
0.1515151515151516 -0.9797979797979798 0.0
0.1717171717171717 -0.9797979797979798 0.0
0.19191919191919204 -0.9797979797979798 0.0
0.21212121212121215 -0.9797979797979798 0.0
0.2323232323232325 -0.9797979797979798 0.0
0.2525252525252526 -0.9797979797979798 0.0
0.27272727272727293 -0.9797979797979798 0.0
0.29292929292929304 -0.9797979797979798 0.0
0.31313131313131315 -0.9797979797979798 0.0
0.3333333333333335 -0.9797979797979798 0.0
0.3535353535353536 -0.9797979797979798 0.0
0.3737373737373739 -0.9797979797979798 0.0
0.39393939393939403 -0.9797979797979798 0.0
0.41414141414141437 -0.9797979797979798 0.0
0.4343434343434345 -0.9797979797979798 0.0
0.4545454545454546 -0.9797979797979798 0.0
0.4747474747474749 -0.9797979797979798 0.0
0.49494949494949503 -0.9797979797979798 0.0
0.5151515151515154 -0.9797979797979798 0.0
0.5353535353535355 -0.9797979797979798 0.0
0.5555555555555556 -0.9797979797979798 0.0
0.5757575757575759 -0.9797979797979798 0.0
0.595959595959596 -0.9797979797979798 0.0
0.6161616161616164 -0.9797979797979798 0.0
0.6363636363636365 -0.9797979797979798 0.0
0.6565656565656568 -0.9797979797979798 0.0
0.6767676767676769 -0.9797979797979798 0.0
0.696969696969697 -0.9797979797979798 0.0
0.7171717171717173 -0.9797979797979798 0.0
0.7373737373737375 -0.9797979797979798 0.0
0.7575757575757578 -0.9797979797979798 0.0
0.7777777777777779 -0.9797979797979798 0.0
0.7979797979797982 -0.9797979797979798 0.0
0.8181818181818183 -0.9797979797979798 0.0
0.8383838383838385 -0.9797979797979798 0.0
0.8585858585858588 -0.9797979797979798 0.0
0.8787878787878789 -0.9797979797979798 0.0
0.8989898989898992 -0.9797979797979798 0.0
0.9191919191919193 -0.9797979797979798 0.0
0.9393939393939394 -0.9797979797979798 0.0
0.9595959595959598 -0.9797979797979798 0.0
0.9797979797979799 -0.9797979797979798 0.0
1.0 -0.9797979797979798 0.0
-1.0 -0.9595959595959596 0.0
-0.9797979797979798 -0.9595959595959596 0.0
-0.9595959595959596 -0.9595959595959596 0.0
-0.9393939393939394 -0.9595959595959596 0.0
-0.9191919191919192 -0.9595959595959596 0.0
-0.898989898989899 -0.9595959595959596 0.0
-0.8787878787878788 -0.9595959595959596 0.0
-0.8585858585858586 -0.9595959595959596 0.0
-0.8383838383838383 -0.9595959595959596 0.0
-0.8181818181818181 -0.9595959595959596 0.0
-0.797979797979798 -0.9595959595959596 0.0
-0.7777777777777778 -0.9595959595959596 0.0
-0.7575757575757576 -0.9595959595959596 0.0
-0.7373737373737373 -0.9595959595959596 0.0
-0.7171717171717171 -0.9595959595959596 0.0
-0.696969696969697 -0.9595959595959596 0.0
-0.6767676767676767 -0.9595959595959596 0.0
-0.6565656565656566 -0.9595959595959596 0.0
-0.6363636363636364 -0.9595959595959596 0.0
-0.6161616161616161 -0.9595959595959596 0.0
-0.5959595959595959 -0.9595959595959596 0.0
-0.5757575757575757 -0.9595959595959596 0.0
-0.5555555555555556 -0.9595959595959596 0.0
-0.5353535353535352 -0.9595959595959596 0.0
-0.5151515151515151 -0.9595959595959596 0.0
-0.4949494949494949 -0.9595959595959596 0.0
-0.4747474747474747 -0.9595959595959596 0.0
-0.4545454545454545 -0.9595959595959596 0.0
-0.43434343434343425 -0.9595959595959596 0.0
-0.41414141414141414 -0.9595959595959596 0.0
-0.3939393939393939 -0.9595959595959596 0.0
-0.3737373737373737 -0.9595959595959596 0.0
-0.3535353535353535 -0.9595959595959596 0.0
-0.33333333333333326 -0.9595959595959596 0.0
-0.31313131313131304 -0.9595959595959596 0.0
-0.2929292929292928 -0.9595959595959596 0.0
-0.2727272727272727 -0.9595959595959596 0.0
-0.2525252525252525 -0.9595959595959596 0.0
-0.23232323232323226 -0.9595959595959596 0.0
-0.21212121212121204 -0.9595959595959596 0.0
-0.19191919191919182 -0.9595959595959596 0.0
-0.1717171717171716 -0.9595959595959596 0.0
-0.1515151515151515 -0.9595959595959596 0.0
-0.13131313131313127 -0.9595959595959596 0.0
-0.11111111111111105 -0.9595959595959596 0.0
-0.09090909090909083 -0.9595959595959596 0.0
-0.07070707070707061 -0.9595959595959596 0.0
-0.050505050505050386 -0.9595959595959596 0.0
-0.030303030303030276 -0.9595959595959596 0.0
-0.010101010101010055 -0.9595959595959596 0.0
0.010101010101010166 -0.9595959595959596 0.0
0.030303030303030498 -0.9595959595959596 0.0
0.05050505050505061 -0.9595959595959596 0.0
0.07070707070707072 -0.9595959595959596 0.0
0.09090909090909105 -0.9595959595959596 0.0
0.11111111111111116 -0.9595959595959596 0.0
0.1313131313131315 -0.9595959595959596 0.0
0.1515151515151516 -0.9595959595959596 0.0
0.1717171717171717 -0.9595959595959596 0.0
0.19191919191919204 -0.9595959595959596 0.0
0.21212121212121215 -0.9595959595959596 0.0
[...]
POINT_DATA 10000
SCALARS u float 1
LOOKUP_TABLE default
-0.0001233220100402832
-0.0001356750726699829
-0.00014768540859222412
-0.00015936791896820068
-0.00017029047012329102
-0.0001804828643798828
-0.00018988549709320068
-0.00019817054271697998
-0.00020548701286315918
-0.0002117156982421875
-0.00021685659885406494
-0.00022105872631072998
-0.00022442638874053955
-0.00022719800472259521
-0.000229567289352417
-0.00023165345191955566
-0.00023378431797027588
-0.0002359151840209961
-0.0002383589744567871
-0.00024096667766571045
-0.0002438277006149292
-0.0002467632293701172
-0.00024975836277008057
-0.00025266408920288086
-0.00025528669357299805
-0.00025770068168640137
-0.0002596527338027954
-0.00026106834411621094
-0.0002620518207550049
-0.00026248395442962646
-0.000262528657913208
-0.0002621114253997803
-0.00026144087314605713
-0.0002605020999908447
-0.0002593398094177246
-0.0002579689025878906
-0.0002562105655670166
-0.00025416910648345947
-0.00025157630443573
-0.0002485513687133789
-0.0002446770668029785
-0.00024020671844482422
-0.00023484230041503906
-0.00022870302200317383
-0.00022177398204803467
-0.00021417438983917236
-0.00020608305931091309
-0.00019766390323638916
-0.00018915534019470215
-0.00018075108528137207
-0.00017279386520385742
-0.00016538798809051514
-0.00015883147716522217
-0.00015319883823394775
-0.00014866888523101807
-0.00014525651931762695
-0.00014288723468780518
-0.00014165043830871582
-0.00014150142669677734
-0.00014230608940124512
-0.00014391541481018066
-0.00014616549015045166
-0.0001490563154220581
-0.00015240907669067383
-0.00015592575073242188
-0.00015968084335327148
-0.00016336143016815186
-0.00016698241233825684
-0.0001703798770904541
-0.00017341971397399902
-0.0001761317253112793
-0.00017845630645751953
-0.00018033385276794434
-0.0001818537712097168
-0.00018291175365447998
-0.00018361210823059082
-0.00018388032913208008
-0.00018380582332611084
-0.0001834481954574585
-0.00018292665481567383
-0.00018209218978881836
-0.00018118321895599365
-0.00018015503883361816
-0.00017918646335601807
-0.0001783818006515503
-0.000177726149559021
-0.0001773536205291748
-0.00017736852169036865
-0.00017780065536499023
-0.0001786649227142334
-0.00018003582954406738
-0.00018186867237091064
-0.00018408894538879395
-0.00018669664859771729
-0.0001894831657409668
-0.00019243359565734863
-0.0001952648162841797
-0.0001979619264602661
-0.0002003312110900879
-0.0002022087574005127
-0.00012959539890289307
-0.00014144182205200195
-0.00015279650688171387
-0.00016351044178009033
-0.00017358362674713135
-0.00018277764320373535
-0.00019118189811706543
-0.00019858777523040771
-0.00020503997802734375
-0.00021044909954071045
-0.00021491944789886475
-0.00021848082542419434
-0.00022141635417938232
-0.0002238154411315918
-0.00022588670253753662
-0.00022780895233154297
-0.00022983551025390625
-0.00023211538791656494
-0.00023464858531951904
-0.00023756921291351318
-0.00024077296257019043
-0.0002442002296447754
-0.00024774670600891113
-0.00025127828121185303
-0.0002547353506088257
-0.0002578645944595337
-0.0002606213092803955
-0.0002628117799758911
-0.0002644360065460205
-0.0002654343843460083
-0.0002658963203430176
-0.0002658367156982422
-0.0002653151750564575
-0.0002643167972564697
-0.00026285648345947266
-0.0002610534429550171
-0.0002587735652923584
-0.00025603175163269043
-0.0002527087926864624
-0.0002487301826477051
-0.0002440810203552246
-0.0002386718988418579
-0.00023245811462402344
-0.00022539496421813965
-0.00021761655807495117
-0.0002091526985168457
-0.00020028650760650635
-0.00019115209579467773
-0.00018192827701568604
-0.0001729428768157959
-0.00016444921493530273
-0.00015667080879211426
-0.00014978647232055664
-0.0001439303159713745
-0.00013925135135650635
-0.0001357942819595337
-0.000133514404296875
-0.00013236701488494873
-0.00013239681720733643
-0.00013341009616851807
-0.00013530254364013672
-0.00013791024684906006
-0.0001412034034729004
-0.00014482438564300537
-0.0001488029956817627
-0.0001529604196548462
-0.00015701353549957275
-0.00016094744205474854
-0.0001646578311920166
-0.00016802549362182617
-0.00017102062702178955
-0.0001735091209411621
-0.00017558038234710693
-0.00017717480659484863
-0.0001782625913619995
-0.00017893314361572266
-0.00017920136451721191
-0.00017905235290527344
-0.00017851591110229492
-0.00017774105072021484
-0.00017671287059783936
-0.00017547607421875
-0.00017410516738891602
-0.00017280876636505127
-0.00017158687114715576
-0.00017052888870239258
-0.00016973912715911865
-0.00016932189464569092
-0.00016936659812927246
-0.00016997754573822021
-0.00017113983631134033
-0.0001729130744934082
-0.00017523765563964844
-0.00017802417278289795
-0.00018130242824554443
-0.00018477439880371094
-0.00018849968910217285
-0.0001920461654663086
-0.000195428729057312
-0.0001984238624572754
-0.00013537704944610596
-0.00014659762382507324
-0.00015714764595031738
-0.00016695261001586914
-0.00017611682415008545
-0.00018437206745147705
-0.00019189715385437012
-0.0001984238624572754
-0.0002040266990661621
-0.00020875036716461182
-0.0002126544713973999
-0.00021575391292572021
-0.00021824240684509277
-0.0002203434705734253
-0.00022217631340026855
-0.0002240389585494995
-0.00022608041763305664
-0.00022843480110168457
-0.00023117661476135254
-0.0002343505620956421
-0.00023792684078216553
-0.00024175643920898438
-0.00024597346782684326
-0.0002501159906387329
-0.000254213809967041
-0.000258028507232666
-0.00026141107082366943
-0.00026422739028930664
-0.0002665221691131592
-0.00026804208755493164
-0.00026880204677581787
-0.0002689957618713379
-0.0002684593200683594
-0.00026735663414001465
-0.000265657901763916
-0.00026342272758483887
-0.00026063621044158936
-0.00025725364685058594
-0.00025318562984466553
-0.0002484917640686035
-0.00024299323558807373
-0.0002367645502090454
-0.00022965669631958008
-0.00022178888320922852
-0.00021317601203918457
-0.00020396709442138672
-0.00019438564777374268
-0.00018455088138580322
-0.00017473101615905762
-0.0001652240753173828
-0.00015625357627868652
-0.0001481175422668457
-0.00014093518257141113
-0.00013487040996551514
-0.00013002753257751465
-0.0001264810562133789
-0.0001242607831954956
-0.00012330710887908936
-0.00012342631816864014
-0.0001246035099029541
-0.00012668967247009277
-0.00012961030006408691
-0.00013312697410583496
-0.00013712048530578613
-0.00014138221740722656
-0.00014585256576538086
-0.000150337815284729
-0.00015465915203094482
-0.0001586228609085083
-0.00016236305236816406
-0.00016558170318603516
-0.00016833841800689697
-0.00017052888870239258
-0.00017227232456207275
-0.00017346441745758057
-0.0001741349697113037
-0.00017434358596801758
-0.00017410516738891602
-0.00017355382442474365
-0.00017255544662475586
-0.0001712888479232788
-0.00016982853412628174
-0.00016817450523376465
-0.00016647577285766602
-0.00016483664512634277
-0.00016328692436218262
-0.00016200542449951172
-0.00016114115715026855
-0.00016076862812042236
-0.0001609325408935547
-0.00016182661056518555
-0.00016336143016815186
-0.00016564130783081055
-0.00016854703426361084
-0.00017204880714416504
-0.0001760423183441162
-0.00018037855625152588
-0.00018480420112609863
-0.0001892298460006714
-0.00019337236881256104
-0.00014066696166992188
-0.00015114247798919678
-0.00016082823276519775
-0.0001698136329650879
-0.0001780092716217041
-0.00018543004989624023
-0.0001920163631439209
-0.00019782781600952148
-0.0002027451992034912
-0.00020684301853179932
-0.0002101808786392212
-0.00021287798881530762
-0.00021506845951080322
-0.00021688640117645264
-0.00021864473819732666
-0.00022043287754058838
-0.0002225339412689209
-0.0002250373363494873
-0.0002279728651046753
-0.0002314150333404541
-0.00023536384105682373
-0.00023971498012542725
-0.00024433434009552
-0.00024910271167755127
-0.0002537667751312256
-0.00025813281536102295
-0.00026217103004455566
-0.0002655833959579468
-0.0002683103084564209
-0.0002702474594116211
-0.00027133524417877197
-0.0002716481685638428
-0.0002711266279220581
-0.00026983022689819336
-0.0002678781747817993
-0.0002651512622833252
-0.00026182830333709717
-0.00025781989097595215
-0.00025309622287750244
-0.00024762749671936035
-0.00024144351482391357
-0.00023442506790161133
-0.0002265721559524536
-0.00021798908710479736
-0.00020863115787506104
-0.00019879639148712158
-0.00018846988677978516
-0.00017802417278289795
-0.00016772747039794922
-0.00015769898891448975
-0.0001483708620071411
-0.0001398324966430664
-0.00013244152069091797
-0.0001261979341506958
-0.00012120604515075684
-0.00011758506298065186
-0.00011539459228515625
-0.0001144111156463623
-0.00011461973190307617
-0.00011596083641052246
-0.00011816620826721191
-0.00012123584747314453
-0.00012499094009399414
-0.00012919306755065918
-0.00013375282287597656
-0.00013849139213562012
-0.00014322996139526367
-0.00014784932136535645
-0.0001522153615951538
-0.00015620887279510498
-0.00015977025032043457
-0.0001627504825592041
-0.00016520917415618896
-0.0001671314239501953
-0.0001684129238128662
-0.00016911327838897705
-0.0001693814992904663
-0.00016911327838897705
-0.00016839802265167236
-0.00016735494136810303
-0.0001659095287322998
-0.00016421079635620117
-0.00016231834888458252
-0.00016026198863983154
-0.00015819072723388672
-0.00015620887279510498
-0.00015442073345184326
-0.00015304982662200928
-0.00015217065811157227
-0.00015184283256530762
-0.00015231966972351074
-0.00015348196029663086
-0.0001554936170578003
-0.00015835464000701904
-0.00016199052333831787
-0.000166282057762146
-0.00017115473747253418
-0.00017634034156799316
-0.00018167495727539062
-0.0001869499683380127
-0.00014543533325195312
-0.0001550614833831787
-0.00016395747661590576
-0.00017201900482177734
-0.0001793503761291504
-0.00018599629402160645
-0.00019177794456481934
-0.00019687414169311523
-0.00020122528076171875
-0.0002047717571258545
-0.00020773708820343018
-0.00021010637283325195
-0.0002119690179824829
-0.00021366775035858154
-0.00021530687808990479
-0.0002170950174331665
-0.00021924078464508057
-0.0002218782901763916
-0.000225067138671875
-0.0002288818359375
-0.00023315846920013428
-0.00023788213729858398
-0.00024302303791046143
-0.00024819374084472656
-0.00025340914726257324
-0.00025838613510131836
-0.00026288628578186035
-0.00026676058769226074
-0.00026994943618774414
-0.00027219951152801514
-0.0002734661102294922
-0.0002738684415817261
-0.000273287296295166
-0.0002718120813369751
-0.00026948750019073486
-0.00026641786098480225
-0.00026251375675201416
-0.0002578645944595337
-0.00025250017642974854
-0.00024643540382385254
-0.00023950636386871338
-0.00023177266120910645
-0.00022327899932861328
-0.0002139955759048462
-0.0002040565013885498
-0.0001935809850692749
-0.00018271803855895996
-0.00017173588275909424
-0.00016096234321594238
-0.00015054643154144287
-0.00014087557792663574
-0.00013205409049987793
-0.00012436509132385254
-0.00011789798736572266
-0.0001128464937210083
-0.00010918080806732178
-0.00010690093040466309
-0.00010596215724945068
-0.00010611116886138916
-0.00010745227336883545
-0.00010973215103149414
-0.00011289119720458984
-0.00011670589447021484
-0.00012105703353881836
-0.00012576580047607422
-0.00013068318367004395
-0.00013566017150878906
-0.0001405477523803711
-0.00014519691467285156
-0.0001494884490966797
-0.00015328824520111084
-0.00015661120414733887
-0.00015929341316223145
-0.00016142427921295166
-0.00016288459300994873
-0.00016380846500396729
-0.00016407668590545654
-0.00016385316848754883
-0.00016316771507263184
-0.00016200542449951172
-0.0001604706048965454
-0.00015860795974731445
-0.0001564323902130127
-0.0001540929079055786
-0.00015172362327575684
-0.00014932453632354736
-0.0001471191644668579
-0.00014519691467285156
-0.0001437067985534668
-0.00014285743236541748
-0.00014272332191467285
-0.0001434534788131714
-0.00014509260654449463
-0.00014770030975341797
-0.00015126168727874756
-0.00015576183795928955
-0.00016100704669952393
-0.00016675889492034912
-0.0001730024814605713
-0.00017921626567840576
-0.0001494884490966797
-0.0001583397388458252
-0.00016643106937408447
-0.00017371773719787598
-0.0001802593469619751
-0.00018610060214996338
-0.00019119679927825928
-0.0001957416534423828
-0.00019952654838562012
-0.00020271539688110352
-0.0002053380012512207
-0.00020740926265716553
-0.0002090930938720703
-0.00021065771579742432
-0.0002123117446899414
-0.00021409988403320312
-0.00021632015705108643
-0.00021915137767791748
-0.0002225339412689209
-0.00022654235363006592
-0.00023123621940612793
-0.00023639202117919922
-0.00024187564849853516
-0.0002475529909133911
-0.00025315582752227783
-0.0002585947513580322
-0.00026348233222961426
-0.00026786327362060547
-0.00027129054069519043
-0.00027382373809814453
-0.0002752542495727539
-0.0002756863832473755
-0.0002749711275100708
-0.00027330219745635986
-0.000270649790763855
-0.00026704370975494385
-0.0002626776695251465
-0.0002574622631072998
-0.0002515166997909546
-0.00024475157260894775
-0.00023718178272247314
-0.00022886693477630615
-0.00021977722644805908
-0.00020994246006011963
-0.00019946694374084473
-0.00018844008445739746
-0.00017711520195007324
-0.00016573071479797363
-0.00015456974506378174
-0.00014378130435943604
-0.0001337677240371704
-0.00012473762035369873
-0.00011679530143737793
-0.0001102834939956665
-0.00010506808757781982
-0.00010135769844055176
-9.891390800476074e-05
-9.784102439880371e-05
-9.801983833312988e-05
-9.928643703460693e-05
-0.00010150671005249023
-0.00010457634925842285
-0.00010834634304046631
-0.00011269748210906982
-0.00011740624904632568
-0.0001223832368850708
-0.00012752413749694824
-0.00013259053230285645
-0.00013743340969085693
-0.00014199316501617432
-0.00014612078666687012
-0.00014966726303100586
-0.00015270709991455078
-0.00015507638454437256
-0.00015676021575927734
-0.00015784800052642822
-0.00015832483768463135
-0.00015817582607269287
-0.00015756487846374512
-0.0001564323902130127
-0.00015479326248168945
-0.0001528412103652954
-0.00015056133270263672
-0.00014810264110565186
-0.00014543533325195312
-0.00014269351959228516
-0.00014008581638336182
-0.00013765692710876465
-0.00013561546802520752
-0.00013418495655059814
-0.0001334547996520996
-0.00013363361358642578
-0.00013472139835357666
-0.0001369267702102661
-0.00014027953147888184
-0.0001446157693862915
-0.0001500844955444336
-0.00015631318092346191
-0.00016318261623382568
-0.0001703798770904541
-0.00015294551849365234
-0.00016100704669952393
-0.00016833841800689697
-0.00017486512660980225
-0.00018066167831420898
-0.0001859217882156372
-0.0001904517412185669
-0.00019446015357971191
-0.00019784271717071533
-0.00020062923431396484
-0.00020299851894378662
-0.00020489096641540527
-0.00020657479763031006
-0.00020799040794372559
-0.00020961463451385498
-0.00021144747734069824
-0.00021381676197052002
-0.000216752290725708
-0.000220373272895813
-0.00022464990615844727
-0.00022962689399719238
-0.00023508071899414062
-0.0002409815788269043
-0.0002469867467880249
-0.00025300681591033936
-0.0002588331699371338
-0.0002641826868057251
-0.000268787145614624
-0.00027251243591308594
-0.0002752542495727539
-0.00027680397033691406
-0.00027720630168914795
-0.0002763718366622925
-0.00027438998222351074
-0.0002713501453399658
-0.00026729702949523926
-0.0002623647451400757
-0.00025662779808044434
-0.00025007128715515137
-0.00024275481700897217
-0.00023458898067474365
-0.00022567808628082275
-0.00021614134311676025
-0.00020579993724822998
-0.00019490718841552734
-0.0001834481954574585
-0.00017182528972625732
-0.00015997886657714844
-0.00014850497245788574
-0.00013744831085205078
-0.00012724101543426514
-0.0001179724931716919
-0.00010994076728820801
-0.00010325014591217041
-9.794533252716064e-05
-9.413063526153564e-05
-9.15825366973877e-05
-9.042024612426758e-05
-9.040534496307373e-05
-9.146332740783691e-05
-9.354948997497559e-05
-9.638071060180664e-05
-9.998679161071777e-05
-0.00010409951210021973
-0.0001086890697479248
-0.00011357665061950684
-0.00011867284774780273
-0.00012379884719848633
-0.00012877583503723145
-0.00013352930545806885
-0.00013786554336547852
-0.00014175474643707275
-0.00014506280422210693
-0.00014771521091461182
-0.00014978647232055664
-0.00015114247798919678
-0.00015179812908172607
-0.00015191733837127686
-0.00015145540237426758
-0.0001504272222518921
-0.00014886260032653809
-0.00014694035053253174
-0.00014466047286987305
-0.00014203786849975586
-0.00013925135135650635
-0.00013628602027893066
-0.00013332068920135498
-0.00013053417205810547
-0.00012797117233276367
-0.00012601912021636963
-0.00012464821338653564
-0.00012408196926116943
-0.00012464821338653564
-0.00012627243995666504
-0.00012919306755065918
-0.00013332068920135498
-0.00013874471187591553
-0.00014518201351165771
-0.0001525580883026123
-0.00016054511070251465
-0.00015582144260406494
-0.00016319751739501953
-0.00016973912715911865
-0.00017559528350830078
-0.0001808255910873413
-0.00018545985221862793
-0.0001895129680633545
-0.00019305944442749023
-0.0001961439847946167
-0.00019875168800354004
-0.00020091235637664795
-0.00020267069339752197
-0.00020422041416168213
-0.0002057105302810669
-0.00020734965801239014
-0.00020927190780639648
-0.00021170079708099365
-0.0002148151397705078
-0.00021864473819732666
-0.00022314488887786865
-0.00022837519645690918
-0.00023412704467773438
-0.0002402663230895996
-0.0002467036247253418
-0.0002530217170715332
-0.00025913119316101074
-0.00026479363441467285
-0.00026966631412506104
-0.00027361512184143066
-0.00027646124362945557
-0.00027808547019958496
-0.00027833878993988037
-0.0002773106098175049
-0.0002750903367996216
-0.00027167797088623047
-0.0002671927213668823
-0.00026172399520874023
-0.000255391001701355
-0.00024825334548950195
-0.00024037063121795654
-0.00023171305656433105
-0.00022238492965698242
-0.0002122819423675537
-0.0002015829086303711
-0.00019027292728424072
-0.00017853081226348877
-0.00016658008098602295
-0.00015453994274139404
-0.00014278292655944824
-0.00013156235218048096
-0.00012111663818359375
-0.00011177361011505127
-0.00010369718074798584
-9.688735008239746e-05
-9.15229320526123e-05
-8.763372898101807e-05
-8.496642112731934e-05
-8.36402177810669e-05
-8.340179920196533e-05
-8.42362642288208e-05
-8.593499660491943e-05
-8.846819400787354e-05
-9.167194366455078e-05
-9.547173976898193e-05
-9.968876838684082e-05
-0.0001042783260345459
-0.00010916590690612793
-0.00011408329010009766
-0.00011910498142242432
-0.00012388825416564941
-0.00012840330600738525
-0.0001325160264968872
-0.00013612210750579834
-0.0001391768455505371
-0.00014153122901916504
-0.0001433342695236206
-0.00014437735080718994
-0.00014482438564300537
-0.00014457106590270996
-0.00014382600784301758
-0.00014249980449676514
-0.00014072656631469727
-0.00013846158981323242
-0.00013591349124908447
-0.00013308227062225342
-0.00013005733489990234
-0.00012694299221038818
-0.00012385845184326172
-0.00012093782424926758
-0.00011840462684631348
-0.00011643767356872559
-0.00011530518531799316
-0.0001150965690612793
-0.00011608004570007324
-0.00011841952800750732
-0.0001221299171447754
-0.00012721121311187744
-0.00013370811939239502
-0.00014136731624603271
-0.00014993548393249512
-0.00015822052955627441
-0.00016483664512634277
-0.0001707524061203003
-0.00017599761486053467
-0.00018061697483062744
-0.00018480420112609863
-0.0001885145902633667
-0.00019179284572601318
-0.00019463896751403809
-0.00019700825214385986
-0.00019906461238861084
-0.00020080804824829102
-0.00020231306552886963
-0.0002038329839706421
-0.00020548701286315918
-0.00020743906497955322
-0.00021003186702728271
-0.00021326541900634766
-0.00021727383136749268
-0.00022199749946594238
-0.00022740662097930908
-0.00023344159126281738
-0.00023983418941497803
-0.0002465099096298218
-0.0002531707286834717
-0.0002594888210296631
-0.0002654045820236206
-0.0002705007791519165
-0.0002745985984802246
-0.0002775043249130249
-0.0002790689468383789
-0.0002792775630950928
-0.0002779960632324219
-0.0002754330635070801
-0.0002715885639190674
-0.0002665519714355469
-0.0002606213092803955
-0.0002537369728088379
-0.0002460479736328125
-0.00023759901523590088
-0.0002285093069076538
-0.00021870434284210205
-0.00020828843116760254