# vtk DataFile Version 3.0
2D PINN Solution
ASCII
DATASET STRUCTURED_GRID
DIMENSIONS 100 100 1
POINTS 10000 float
-1.0 -1.0 0.0
-0.9797979797979798 -1.0 0.0
-0.9595959595959596 -1.0 0.0
-0.9393939393939394 -1.0 0.0
-0.9191919191919192 -1.0 0.0
-0.898989898989899 -1.0 0.0
-0.8787878787878788 -1.0 0.0
-0.8585858585858586 -1.0 0.0
-0.8383838383838383 -1.0 0.0
-0.8181818181818181 -1.0 0.0
-0.797979797979798 -1.0 0.0
-0.7777777777777778 -1.0 0.0
-0.7575757575757576 -1.0 0.0
-0.7373737373737373 -1.0 0.0
-0.7171717171717171 -1.0 0.0
-0.696969696969697 -1.0 0.0
-0.6767676767676767 -1.0 0.0
-0.6565656565656566 -1.0 0.0
-0.6363636363636364 -1.0 0.0
-0.6161616161616161 -1.0 0.0
-0.5959595959595959 -1.0 0.0
-0.5757575757575757 -1.0 0.0
-0.5555555555555556 -1.0 0.0
-0.5353535353535352 -1.0 0.0
-0.5151515151515151 -1.0 0.0
-0.4949494949494949 -1.0 0.0
-0.4747474747474747 -1.0 0.0
-0.4545454545454545 -1.0 0.0
-0.43434343434343425 -1.0 0.0
-0.41414141414141414 -1.0 0.0
-0.3939393939393939 -1.0 0.0
-0.3737373737373737 -1.0 0.0
-0.3535353535353535 -1.0 0.0
-0.33333333333333326 -1.0 0.0
-0.31313131313131304 -1.0 0.0
-0.2929292929292928 -1.0 0.0
-0.2727272727272727 -1.0 0.0
-0.2525252525252525 -1.0 0.0
-0.23232323232323226 -1.0 0.0
-0.21212121212121204 -1.0 0.0
-0.19191919191919182 -1.0 0.0
-0.1717171717171716 -1.0 0.0
-0.1515151515151515 -1.0 0.0
-0.13131313131313127 -1.0 0.0
-0.11111111111111105 -1.0 0.0
-0.09090909090909083 -1.0 0.0
-0.07070707070707061 -1.0 0.0
-0.050505050505050386 -1.0 0.0
-0.030303030303030276 -1.0 0.0
-0.010101010101010055 -1.0 0.0
0.010101010101010166 -1.0 0.0
0.030303030303030498 -1.0 0.0
0.05050505050505061 -1.0 0.0
0.07070707070707072 -1.0 0.0
0.09090909090909105 -1.0 0.0
0.11111111111111116 -1.0 0.0
0.1313131313131315 -1.0 0.0
0.1515151515151516 -1.0 0.0
0.1717171717171717 -1.0 0.0
0.19191919191919204 -1.0 0.0
0.21212121212121215 -1.0 0.0
0.2323232323232325 -1.0 0.0
0.2525252525252526 -1.0 0.0
0.27272727272727293 -1.0 0.0
0.29292929292929304 -1.0 0.0
0.31313131313131315 -1.0 0.0
0.3333333333333335 -1.0 0.0
0.3535353535353536 -1.0 0.0
0.3737373737373739 -1.0 0.0
0.39393939393939403 -1.0 0.0
0.41414141414141437 -1.0 0.0
0.4343434343434345 -1.0 0.0
0.4545454545454546 -1.0 0.0
0.4747474747474749 -1.0 0.0
0.49494949494949503 -1.0 0.0
0.5151515151515154 -1.0 0.0
0.5353535353535355 -1.0 0.0
0.5555555555555556 -1.0 0.0
0.5757575757575759 -1.0 0.0
0.595959595959596 -1.0 0.0
0.6161616161616164 -1.0 0.0
0.6363636363636365 -1.0 0.0
0.6565656565656568 -1.0 0.0
0.6767676767676769 -1.0 0.0
0.696969696969697 -1.0 0.0
0.7171717171717173 -1.0 0.0
0.7373737373737375 -1.0 0.0
0.7575757575757578 -1.0 0.0
0.7777777777777779 -1.0 0.0
0.7979797979797982 -1.0 0.0
0.8181818181818183 -1.0 0.0
0.8383838383838385 -1.0 0.0
0.8585858585858588 -1.0 0.0
0.8787878787878789 -1.0 0.0
0.8989898989898992 -1.0 0.0
0.9191919191919193 -1.0 0.0
0.9393939393939394 -1.0 0.0
0.9595959595959598 -1.0 0.0
0.9797979797979799 -1.0 0.0
1.0 -1.0 0.0
-1.0 -0.9797979797979798 0.0
-0.9797979797979798 -0.9797979797979798 0.0
-0.9595959595959596 -0.9797979797979798 0.0
-0.9393939393939394 -0.9797979797979798 0.0
-0.9191919191919192 -0.9797979797979798 0.0
-0.898989898989899 -0.9797979797979798 0.0
-0.8787878787878788 -0.9797979797979798 0.0
-0.8585858585858586 -0.9797979797979798 0.0
-0.8383838383838383 -0.9797979797979798 0.0
-0.8181818181818181 -0.9797979797979798 0.0
-0.797979797979798 -0.9797979797979798 0.0
-0.7777777777777778 -0.9797979797979798 0.0
-0.7575757575757576 -0.9797979797979798 0.0
-0.7373737373737373 -0.9797979797979798 0.0
-0.7171717171717171 -0.9797979797979798 0.0
-0.696969696969697 -0.9797979797979798 0.0
-0.6767676767676767 -0.9797979797979798 0.0
-0.6565656565656566 -0.9797979797979798 0.0
-0.6363636363636364 -0.9797979797979798 0.0
-0.6161616161616161 -0.9797979797979798 0.0
-0.5959595959595959 -0.9797979797979798 0.0
-0.5757575757575757 -0.9797979797979798 0.0
-0.5555555555555556 -0.9797979797979798 0.0
-0.5353535353535352 -0.9797979797979798 0.0
-0.5151515151515151 -0.9797979797979798 0.0
-0.4949494949494949 -0.9797979797979798 0.0
-0.4747474747474747 -0.9797979797979798 0.0
-0.4545454545454545 -0.9797979797979798 0.0
-0.43434343434343425 -0.9797979797979798 0.0
-0.41414141414141414 -0.9797979797979798 0.0
-0.3939393939393939 -0.9797979797979798 0.0
-0.3737373737373737 -0.9797979797979798 0.0
-0.3535353535353535 -0.9797979797979798 0.0
-0.33333333333333326 -0.9797979797979798 0.0
-0.31313131313131304 -0.9797979797979798 0.0
-0.2929292929292928 -0.9797979797979798 0.0
-0.2727272727272727 -0.9797979797979798 0.0
-0.2525252525252525 -0.9797979797979798 0.0
-0.23232323232323226 -0.9797979797979798 0.0
-0.21212121212121204 -0.9797979797979798 0.0
-0.19191919191919182 -0.9797979797979798 0.0
-0.1717171717171716 -0.9797979797979798 0.0
-0.1515151515151515 -0.9797979797979798 0.0
-0.13131313131313127 -0.9797979797979798 0.0
-0.11111111111111105 -0.9797979797979798 0.0
-0.09090909090909083 -0.9797979797979798 0.0
-0.07070707070707061 -0.9797979797979798 0.0
-0.050505050505050386 -0.9797979797979798 0.0
-0.030303030303030276 -0.9797979797979798 0.0
-0.010101010101010055 -0.9797979797979798 0.0
0.010101010101010166 -0.9797979797979798 0.0
0.030303030303030498 -0.9797979797979798 0.0
0.05050505050505061 -0.9797979797979798 0.0
0.07070707070707072 -0.9797979797979798 0.0
0.09090909090909105 -0.9797979797979798 0.0
0.11111111111111116 -0.9797979797979798 0.0
0.1313131313131315 -0.9797979797979798 0.0
0.1515151515151516 -0.9797979797979798 0.0
0.1717171717171717 -0.9797979797979798 0.0
0.19191919191919204 -0.9797979797979798 0.0
0.21212121212121215 -0.9797979797979798 0.0
0.2323232323232325 -0.9797979797979798 0.0
0.2525252525252526 -0.9797979797979798 0.0
0.27272727272727293 -0.9797979797979798 0.0
0.29292929292929304 -0.9797979797979798 0.0
0.31313131313131315 -0.9797979797979798 0.0
0.3333333333333335 -0.9797979797979798 0.0
0.3535353535353536 -0.9797979797979798 0.0
0.3737373737373739 -0.9797979797979798 0.0
0.39393939393939403 -0.9797979797979798 0.0
0.41414141414141437 -0.9797979797979798 0.0
0.4343434343434345 -0.9797979797979798 0.0
0.4545454545454546 -0.9797979797979798 0.0
0.4747474747474749 -0.9797979797979798 0.0
0.49494949494949503 -0.9797979797979798 0.0
0.5151515151515154 -0.9797979797979798 0.0
0.5353535353535355 -0.9797979797979798 0.0
0.5555555555555556 -0.9797979797979798 0.0
0.5757575757575759 -0.9797979797979798 0.0
0.595959595959596 -0.9797979797979798 0.0
0.6161616161616164 -0.9797979797979798 0.0
0.6363636363636365 -0.9797979797979798 0.0
0.6565656565656568 -0.9797979797979798 0.0
0.6767676767676769 -0.9797979797979798 0.0
0.696969696969697 -0.9797979797979798 0.0
0.7171717171717173 -0.9797979797979798 0.0
0.7373737373737375 -0.9797979797979798 0.0
0.7575757575757578 -0.9797979797979798 0.0
0.7777777777777779 -0.9797979797979798 0.0
0.7979797979797982 -0.9797979797979798 0.0
0.8181818181818183 -0.9797979797979798 0.0
0.8383838383838385 -0.9797979797979798 0.0
0.8585858585858588 -0.9797979797979798 0.0
0.8787878787878789 -0.9797979797979798 0.0
0.8989898989898992 -0.9797979797979798 0.0
0.9191919191919193 -0.9797979797979798 0.0
0.9393939393939394 -0.9797979797979798 0.0
0.9595959595959598 -0.9797979797979798 0.0
0.9797979797979799 -0.9797979797979798 0.0
1.0 -0.9797979797979798 0.0
-1.0 -0.9595959595959596 0.0
-0.9797979797979798 -0.9595959595959596 0.0
-0.9595959595959596 -0.9595959595959596 0.0
-0.9393939393939394 -0.9595959595959596 0.0
-0.9191919191919192 -0.9595959595959596 0.0
-0.898989898989899 -0.9595959595959596 0.0
-0.8787878787878788 -0.9595959595959596 0.0
-0.8585858585858586 -0.9595959595959596 0.0
-0.8383838383838383 -0.9595959595959596 0.0
-0.8181818181818181 -0.9595959595959596 0.0
-0.797979797979798 -0.9595959595959596 0.0
-0.7777777777777778 -0.9595959595959596 0.0
-0.7575757575757576 -0.9595959595959596 0.0
-0.7373737373737373 -0.9595959595959596 0.0
-0.7171717171717171 -0.9595959595959596 0.0
-0.696969696969697 -0.9595959595959596 0.0
-0.6767676767676767 -0.9595959595959596 0.0
-0.6565656565656566 -0.9595959595959596 0.0
-0.6363636363636364 -0.9595959595959596 0.0
-0.6161616161616161 -0.9595959595959596 0.0
-0.5959595959595959 -0.9595959595959596 0.0
-0.5757575757575757 -0.9595959595959596 0.0
-0.5555555555555556 -0.9595959595959596 0.0
-0.5353535353535352 -0.9595959595959596 0.0
-0.5151515151515151 -0.9595959595959596 0.0
-0.4949494949494949 -0.9595959595959596 0.0
-0.4747474747474747 -0.9595959595959596 0.0
-0.4545454545454545 -0.9595959595959596 0.0
-0.43434343434343425 -0.9595959595959596 0.0
-0.41414141414141414 -0.9595959595959596 0.0
-0.3939393939393939 -0.9595959595959596 0.0
-0.3737373737373737 -0.9595959595959596 0.0
-0.3535353535353535 -0.9595959595959596 0.0
-0.33333333333333326 -0.9595959595959596 0.0
-0.31313131313131304 -0.9595959595959596 0.0
-0.2929292929292928 -0.9595959595959596 0.0
-0.2727272727272727 -0.9595959595959596 0.0
-0.2525252525252525 -0.9595959595959596 0.0
-0.23232323232323226 -0.9595959595959596 0.0
-0.21212121212121204 -0.9595959595959596 0.0
-0.19191919191919182 -0.9595959595959596 0.0
-0.1717171717171716 -0.9595959595959596 0.0
-0.1515151515151515 -0.9595959595959596 0.0
-0.13131313131313127 -0.9595959595959596 0.0
-0.11111111111111105 -0.9595959595959596 0.0
-0.09090909090909083 -0.9595959595959596 0.0
-0.07070707070707061 -0.9595959595959596 0.0
-0.050505050505050386 -0.9595959595959596 0.0
-0.030303030303030276 -0.9595959595959596 0.0
-0.010101010101010055 -0.9595959595959596 0.0
0.010101010101010166 -0.9595959595959596 0.0
0.030303030303030498 -0.9595959595959596 0.0
0.05050505050505061 -0.9595959595959596 0.0
0.07070707070707072 -0.9595959595959596 0.0
0.09090909090909105 -0.9595959595959596 0.0
0.11111111111111116 -0.9595959595959596 0.0
0.1313131313131315 -0.9595959595959596 0.0
0.1515151515151516 -0.9595959595959596 0.0
0.1717171717171717 -0.9595959595959596 0.0
0.19191919191919204 -0.9595959595959596 0.0
0.21212121212121215 -0.9595959595959596 0.0
[...]
POINT_DATA 10000
SCALARS u float 1
LOOKUP_TABLE default
3.223121166229248e-05
2.8625130653381348e-05
2.5898218154907227e-05
2.3916363716125488e-05
2.269446849822998e-05
2.2038817405700684e-05
2.2113323211669922e-05
2.2679567337036133e-05
2.3752450942993164e-05
2.530217170715332e-05
2.720952033996582e-05
2.944469451904297e-05
3.190338611602783e-05
3.452599048614502e-05
3.72081995010376e-05
3.986060619354248e-05
4.2498111724853516e-05
4.488229751586914e-05
4.699826240539551e-05
4.8786401748657227e-05
5.014240741729736e-05
5.099177360534668e-05
5.137920379638672e-05
5.117058753967285e-05
5.0440430641174316e-05
4.918873310089111e-05
4.7519803047180176e-05
4.5299530029296875e-05
4.2825937271118164e-05
4.003942012786865e-05
3.705918788909912e-05
3.4049153327941895e-05
3.0994415283203125e-05
2.8088688850402832e-05
2.5272369384765625e-05
2.2619962692260742e-05
2.0235776901245117e-05
1.8015503883361816e-05
1.601874828338623e-05
1.4156103134155273e-05
1.2278556823730469e-05
1.0460615158081055e-05
8.404254913330078e-06
6.094574928283691e-06
3.337860107421875e-06
1.7881393432617188e-07
-3.635883331298828e-06
-8.106231689453125e-06
-1.3172626495361328e-05
-1.882016658782959e-05
-2.4959444999694824e-05
-3.1501054763793945e-05
-3.8236379623413086e-05
-4.4912099838256836e-05
-5.137920379638672e-05
-5.7384371757507324e-05
-6.274878978729248e-05
-6.73830509185791e-05
-7.127225399017334e-05
-7.426738739013672e-05
-7.647275924682617e-05
-7.809698581695557e-05
-7.921457290649414e-05
-8.009374141693115e-05
-8.092820644378662e-05
-8.195638656616211e-05
-8.335709571838379e-05
-8.52346420288086e-05
-8.772313594818115e-05
-9.077787399291992e-05
-9.436905384063721e-05
-9.848177433013916e-05
-0.00010277330875396729
-0.00010718405246734619
-0.00011153519153594971
-0.00011567771434783936
-0.00011937320232391357
-0.0001226365566253662
-0.00012536346912384033
-0.00012768805027008057
-0.0001296699047088623
-0.000131264328956604
-0.0001327991485595703
-0.00013433396816253662
-0.00013592839241027832
-0.00013785064220428467
-0.00014019012451171875
-0.00014284253120422363
-0.00014594197273254395
-0.00014951825141906738
-0.00015354156494140625
-0.00015786290168762207
-0.000162467360496521
-0.00016729533672332764
-0.0001722574234008789
-0.00017718970775604248
-0.00018200278282165527
-0.00018662214279174805
-0.00019091367721557617
-0.0001948922872543335
3.5062432289123535e-05
3.205239772796631e-05
2.9832124710083008e-05
2.835690975189209e-05
2.7626752853393555e-05
2.7492642402648926e-05
2.8058886528015137e-05
2.9161572456359863e-05
3.071129322052002e-05
3.27378511428833e-05
3.510713577270508e-05
3.777444362640381e-05
4.0590763092041016e-05
4.363059997558594e-05
4.667043685913086e-05
4.9695372581481934e-05
5.2556395530700684e-05
5.510449409484863e-05
5.7324767112731934e-05
5.9157609939575195e-05
6.039440631866455e-05
6.109476089477539e-05
6.115436553955078e-05
6.063282489776611e-05
5.945563316345215e-05
5.765259265899658e-05
5.5283308029174805e-05
5.2541494369506836e-05
4.926323890686035e-05
4.589557647705078e-05
4.221498966217041e-05
3.860890865325928e-05
3.509223461151123e-05
3.1694769859313965e-05
2.849102020263672e-05
2.5704503059387207e-05
2.3171305656433105e-05
2.104043960571289e-05
1.926720142364502e-05
1.7687678337097168e-05
1.634657382965088e-05
1.5124678611755371e-05
1.3768672943115234e-05
1.2278556823730469e-05
1.0460615158081055e-05
8.091330528259277e-06
5.260109901428223e-06
1.6987323760986328e-06
-2.60770320892334e-06
-7.674098014831543e-06
-1.3381242752075195e-05
-1.963973045349121e-05
-2.6345252990722656e-05
-3.3229589462280273e-05
-4.000961780548096e-05
-4.6446919441223145e-05
-5.2422285079956055e-05
-5.7578086853027344e-05
-6.194412708282471e-05
-6.535649299621582e-05
-6.781518459320068e-05
-6.951391696929932e-05
-7.055699825286865e-05
-7.109344005584717e-05
-7.152557373046875e-05
-7.203221321105957e-05
-7.289648056030273e-05
-7.426738739013672e-05
-7.633864879608154e-05
-7.927417755126953e-05
-8.282065391540527e-05
-8.71419906616211e-05
-9.191036224365234e-05
-9.6932053565979e-05
-0.00010211765766143799
-0.00010716915130615234
-0.0001119375228881836
-0.00011613965034484863
-0.00011992454528808594
-0.00012314319610595703
-0.00012581050395965576
-0.0001280754804611206
-0.0001300722360610962
-0.000131949782371521
-0.00013378262519836426
-0.00013577938079833984
-0.00013807415962219238
-0.00014063715934753418
-0.00014363229274749756
-0.00014708936214447021
-0.00015087425708770752
-0.00015503168106079102
-0.000159531831741333
-0.00016422569751739502
-0.0001690387725830078
-0.00017383694648742676
-0.00017862021923065186
-0.00018323957920074463
-0.0001875460147857666
-0.00019155442714691162
3.801286220550537e-05
3.5449862480163574e-05
3.363192081451416e-05
3.2573938369750977e-05
3.230571746826172e-05
3.260374069213867e-05
3.3527612686157227e-05
3.503262996673584e-05
3.7029385566711426e-05
3.93986701965332e-05
4.2110681533813477e-05
4.51505184173584e-05
4.836916923522949e-05
5.169212818145752e-05
5.504488945007324e-05
5.823373794555664e-05
6.133317947387695e-05
6.403028964996338e-05
6.629526615142822e-05
6.805360317230225e-05
6.927549839019775e-05
6.970763206481934e-05
6.949901580810547e-05
6.850063800811768e-05
6.681680679321289e-05
6.443262100219727e-05
6.146728992462158e-05
5.7950615882873535e-05
5.4076313972473145e-05
4.991888999938965e-05
4.565715789794922e-05
4.144012928009033e-05
3.7297606468200684e-05
3.349781036376953e-05
3.0055642127990723e-05
2.6986002922058105e-05
2.4452805519104004e-05
2.2351741790771484e-05
2.072751522064209e-05
1.9550323486328125e-05
1.8656253814697266e-05
1.8030405044555664e-05
1.7434358596801758e-05
1.68532133102417e-05
1.5974044799804688e-05
1.4692544937133789e-05
1.2874603271484375e-05
1.0326504707336426e-05
6.973743438720703e-06
2.7567148208618164e-06
-2.2798776626586914e-06
-8.150935173034668e-06
-1.455843448638916e-05
-2.1412968635559082e-05
-2.847611904144287e-05
-3.5390257835388184e-05
-4.1812658309936523e-05
-4.7579407691955566e-05
-5.251169204711914e-05
-5.640089511871338e-05
-5.924701690673828e-05
-6.109476089477539e-05
-6.210803985595703e-05
-6.246566772460938e-05
-6.255507469177246e-05
-6.256997585296631e-05
-6.283819675445557e-05
-6.362795829772949e-05
-6.526708602905273e-05
-6.778538227081299e-05
-7.11977481842041e-05
-7.548928260803223e-05
-8.057057857513428e-05
-8.615851402282715e-05
-9.201467037200928e-05
-9.794533252716064e-05
-0.0001035928726196289
-0.00010889768600463867
-0.00011362135410308838
-0.00011774897575378418
-0.00012125074863433838
-0.0001242607831954956
-0.00012677907943725586
-0.00012905895709991455
-0.00013116002082824707
-0.00013329088687896729
-0.00013560056686401367
-0.00013817846775054932
-0.00014109909534454346
-0.00014437735080718994
-0.00014802813529968262
-0.00015205144882202148
-0.00015641748905181885
-0.00016096234321594238
-0.00016571581363677979
-0.00017048418521881104
-0.00017517805099487305
-0.00017981231212615967
-0.0001841038465499878
-0.00018818676471710205
4.0858983993530273e-05
3.8564205169677734e-05
3.7103891372680664e-05
3.643333911895752e-05
3.637373447418213e-05
3.7029385566711426e-05
3.828108310699463e-05
4.003942012786865e-05
4.228949546813965e-05
4.4971704483032227e-05
4.795193672180176e-05
5.123019218444824e-05
5.4717063903808594e-05
5.8263540267944336e-05
6.178021430969238e-05
6.522238254547119e-05
6.830692291259766e-05
7.107853889465332e-05
7.343292236328125e-05
7.510185241699219e-05
7.611513137817383e-05
7.63237476348877e-05
7.572770118713379e-05
7.43567943572998e-05
7.212162017822266e-05
6.915628910064697e-05
6.555020809173584e-05
6.139278411865234e-05
5.681812763214111e-05
5.2034854888916016e-05
4.719197750091553e-05
4.236400127410889e-05
3.7863850593566895e-05
3.3721327781677246e-05
2.9996037483215332e-05
2.689659595489502e-05
2.4437904357910156e-05
2.2530555725097656e-05
2.12937593460083e-05
2.0563602447509766e-05
2.0310282707214355e-05
2.0503997802734375e-05
2.0802021026611328e-05
2.1263957023620605e-05
2.148747444152832e-05
2.1398067474365234e-05
2.084672451019287e-05
1.952052116394043e-05
1.7270445823669434e-05
1.4156103134155273e-05
9.819865226745605e-06
4.5299530029296875e-06
-1.7285346984863281e-06
-8.58306884765625e-06
-1.5974044799804688e-05
-2.3499131202697754e-05
-3.0681490898132324e-05
-3.7342309951782227e-05
-4.315376281738281e-05
-4.7832727432250977e-05
-5.1409006118774414e-05
-5.3688883781433105e-05
-5.50001859664917e-05
-5.5402517318725586e-05
-5.523860454559326e-05
-5.482137203216553e-05
-5.456805229187012e-05
-5.4776668548583984e-05
-5.576014518737793e-05
-5.771219730377197e-05
-6.073713302612305e-05
-6.4849853515625e-05
-6.996095180511475e-05
-7.575750350952148e-05
-8.213520050048828e-05
-8.875131607055664e-05
-9.514391422271729e-05
-0.00010135769844055176
-0.00010702013969421387
-0.00011205673217773438
-0.00011633336544036865
-0.00012005865573883057
-0.00012311339378356934
-0.0001258254051208496
-0.00012829899787902832
-0.0001306384801864624
-0.00013297796249389648
-0.00013552606105804443
-0.00013840198516845703
-0.00014159083366394043
-0.00014509260654449463
-0.00014899671077728271
-0.0001531541347503662
-0.0001576542854309082
-0.00016230344772338867
-0.00016698241233825684
-0.0001716911792755127
-0.00017628073692321777
-0.00018067657947540283
-0.00018478929996490479
4.334747791290283e-05
4.13358211517334e-05
4.0158629417419434e-05
3.965198993682861e-05
3.987550735473633e-05
4.07099723815918e-05
4.214048385620117e-05
4.406273365020752e-05
4.6506524085998535e-05
4.929304122924805e-05
5.240738391876221e-05
5.581974983215332e-05
5.939602851867676e-05
6.303191184997559e-05
6.665289402008057e-05
7.010996341705322e-05
7.328391075134277e-05
7.605552673339844e-05
7.824599742889404e-05
7.97957181930542e-05
8.060038089752197e-05
8.055567741394043e-05
7.958710193634033e-05
7.772445678710938e-05
7.49826431274414e-05
7.148087024688721e-05
6.727874279022217e-05
6.258487701416016e-05
5.742907524108887e-05
5.2109360694885254e-05
4.680454730987549e-05
4.172325134277344e-05
3.695487976074219e-05
3.2648444175720215e-05
2.905726432800293e-05
2.6166439056396484e-05
2.4020671844482422e-05
2.2709369659423828e-05
2.218782901763916e-05
2.230703830718994e-05
2.3186206817626953e-05
2.4572014808654785e-05
2.6285648345947266e-05
2.8192996978759766e-05
3.0159950256347656e-05
3.17692756652832e-05
3.2842159271240234e-05
3.318488597869873e-05
3.243982791900635e-05
3.0413269996643066e-05
2.709031105041504e-05
2.2232532501220703e-05
1.6048550605773926e-05
8.717179298400879e-06
5.364418029785156e-07
-8.195638656616211e-06
-1.6897916793823242e-05
-2.5153160095214844e-05
-3.261864185333252e-05
-3.892183303833008e-05
-4.3958425521850586e-05
-4.747509956359863e-05
-4.9561262130737305e-05
-5.054473876953125e-05
-5.05596399307251e-05
-5.002319812774658e-05
-4.938244819641113e-05
-4.9054622650146484e-05
-4.935264587402344e-05
-5.060434341430664e-05
-5.2988529205322266e-05
-5.6624412536621094e-05
-6.140768527984619e-05
-6.715953350067139e-05
-7.359683513641357e-05
-8.051097393035889e-05
-8.755922317504883e-05
-9.433925151824951e-05
-0.00010076165199279785
-0.00010648369789123535
-0.00011147558689117432
-0.00011579692363739014
-0.00011947751045227051
-0.00012257695198059082
-0.0001253187656402588
-0.0001278221607208252
-0.0001303255558013916
-0.0001328885555267334
-0.00013561546802520752
-0.00013874471187591553
-0.00014212727546691895
-0.00014588236808776855
-0.00014995038509368896
-0.0001542419195175171
-0.00015880167484283447
-0.00016342103481292725
-0.0001681596040725708
-0.00017277896404266357
-0.00017723441123962402
-0.00018137693405151367
4.556775093078613e-05
4.369020462036133e-05
4.2632222175598145e-05
4.2244791984558105e-05
4.260241985321045e-05
4.349648952484131e-05
4.495680332183838e-05
4.698336124420166e-05
4.941225051879883e-05
5.221366882324219e-05
5.5342912673950195e-05
5.872547626495361e-05
6.222724914550781e-05
6.586313247680664e-05
6.937980651855469e-05
7.283687591552734e-05
7.593631744384766e-05
7.852911949157715e-05
8.061528205871582e-05
8.188188076019287e-05
8.241832256317139e-05
8.19861888885498e-05
8.064508438110352e-05
7.832050323486328e-05
7.514655590057373e-05
7.112324237823486e-05
6.642937660217285e-05
6.121397018432617e-05
5.571544170379639e-05
5.014240741729736e-05
4.468858242034912e-05
3.9577484130859375e-05
3.4928321838378906e-05
3.0994415283203125e-05
2.7924776077270508e-05
2.574920654296875e-05
2.4586915969848633e-05
2.44826078414917e-05
2.5346875190734863e-05
2.720952033996582e-05
2.9996037483215332e-05
3.357231616973877e-05
3.768503665924072e-05
4.2244791984558105e-05
4.690885543823242e-05
5.128979682922363e-05
5.5164098739624023e-05
5.8069825172424316e-05
5.964934825897217e-05
5.939602851867676e-05
5.7220458984375e-05
5.289912223815918e-05
4.6387314796447754e-05
3.7923455238342285e-05
2.7820467948913574e-05
1.6629695892333984e-05
4.947185516357422e-06
-6.67572021484375e-06
-1.749396324157715e-05
-2.7045607566833496e-05
-3.49879264831543e-05
-4.108250141143799e-05
-4.5359134674072266e-05
-4.7847628593444824e-05
-4.890561103820801e-05
-4.890561103820801e-05
-4.8354268074035645e-05
-4.76837158203125e-05
-4.735589027404785e-05
-4.7847628593444824e-05
-4.939734935760498e-05
-5.218386650085449e-05
-5.622208118438721e-05
-6.148219108581543e-05
-6.765127182006836e-05
-7.446110248565674e-05
-8.161365985870361e-05
-8.873641490936279e-05
-9.550154209136963e-05
-0.0001017451286315918
-0.00010727345943450928
-0.00011208653450012207
-0.00011613965034484863
-0.00011959671974182129
-0.00012254714965820312
-0.0001252591609954834
-0.00012777745723724365
-0.00013031065464019775
-0.00013302266597747803
-0.0001360177993774414
-0.0001391768455505371
-0.0001427978277206421
-0.00014667212963104248
-0.00015091896057128906
-0.00015532970428466797
-0.0001599341630935669
-0.00016456842422485352
-0.00016926229000091553
-0.00017365813255310059
-0.00017793476581573486
4.731118679046631e-05
4.5552849769592285e-05
4.4539570808410645e-05
4.4226646423339844e-05
4.45246696472168e-05
4.537403583526611e-05
4.680454730987549e-05
4.871189594268799e-05
5.097687244415283e-05
5.3629279136657715e-05
5.665421485900879e-05
5.982816219329834e-05
6.319582462310791e-05
6.663799285888672e-05
7.002055644989014e-05
7.314980030059814e-05
7.60108232498169e-05
7.835030555725098e-05
8.012354373931885e-05
8.106231689453125e-05
8.119642734527588e-05
8.04513692855835e-05
7.867813110351562e-05
7.593631744384766e-05
7.227063179016113e-05
6.790459156036377e-05
6.285309791564941e-05
5.7503581047058105e-05
5.187094211578369e-05
4.64022159576416e-05
4.1157007217407227e-05
3.65525484085083e-05
3.2588839530944824e-05
2.9593706130981445e-05
2.7731060981750488e-05
2.709031105041504e-05
2.779066562652588e-05
2.9861927032470703e-05
3.3408403396606445e-05
3.832578659057617e-05
4.4539570808410645e-05
5.200505256652832e-05
6.0498714447021484e-05
6.975233554840088e-05
7.939338684082031e-05
8.890032768249512e-05
9.773671627044678e-05
0.00010532140731811523
0.0001109093427658081
0.00011400878429412842
0.00011391937732696533
0.00011032819747924805
0.00010305643081665039
9.237229824066162e-05
7.869303226470947e-05
6.26593828201294e-05
4.522502422332764e-05
2.746284008026123e-05
1.0192394256591797e-05
-5.7220458984375e-06
-1.946091651916504e-05
-3.084540367126465e-05
-3.9458274841308594e-05
-4.556775093078613e-05
-4.929304122924805e-05
-5.106627941131592e-05
-5.151331424713135e-05
-5.1155686378479004e-05
-5.061924457550049e-05
-5.0440430641174316e-05
-5.1081180572509766e-05
-5.27799129486084e-05
-5.581974983215332e-05
-6.000697612762451e-05
-6.538629531860352e-05
-7.161498069763184e-05
-7.838010787963867e-05
-8.530914783477783e-05
-9.213387966156006e-05
-9.851157665252686e-05
-0.00010426342487335205
-0.00010928511619567871
-0.00011362135410308838
-0.00011722743511199951
-0.00012029707431793213
-0.00012308359146118164
-0.00012558698654174805
-0.00012803077697753906
-0.00013059377670288086
-0.00013339519500732422
-0.00013640522956848145
-0.0001398324966430664
-0.00014355778694152832
-0.00014764070510864258
-0.000151902437210083
-0.00015644729137420654
-0.00016111135482788086
-0.00016570091247558594
-0.00017026066780090332
-0.0001744776964187622
4.86522912979126e-05
4.690885543823242e-05
4.5865774154663086e-05
4.5433640480041504e-05
4.5627355575561523e-05
4.635751247406006e-05
4.760921001434326e-05
4.9248337745666504e-05
5.130469799041748e-05
5.37186861038208e-05
5.634129047393799e-05
5.9232115745544434e-05
6.222724914550781e-05
6.537139415740967e-05
6.826221942901611e-05
7.107853889465332e-05
7.347762584686279e-05
7.545948028564453e-05
7.677078247070312e-05
7.735192775726318e-05
7.700920104980469e-05
7.574260234832764e-05
7.356703281402588e-05
7.043778896331787e-05
6.654858589172363e-05
6.191432476043701e-05
5.684792995452881e-05
5.155801773071289e-05
4.626810550689697e-05
4.132091999053955e-05
3.68952751159668e-05
3.331899642944336e-05
3.0800700187683105e-05
2.9653310775756836e-05
2.9981136322021484e-05
3.190338611602783e-05
3.573298454284668e-05
4.157423973083496e-05
4.9486756324768066e-05
5.957484245300293e-05
7.174909114837646e-05
8.608400821685791e-05
0.00010223686695098877
0.0001198798418045044
0.00013850629329681396
0.00015732645988464355
0.00017549097537994385
0.00019185245037078857
0.00020529329776763916
0.0002146214246749878
0.00021888315677642822
0.00021719932556152344
0.00020922720432281494
0.00019501149654388428
0.00017520785331726074
0.00015082955360412598
0.00012323260307312012
9.416043758392334e-05
6.510317325592041e-05
3.759562969207764e-05
1.2785196304321289e-05
-8.463859558105469e-06
-2.5793910026550293e-05
-3.892183303833008e-05
-4.826486110687256e-05
-5.431473255157471e-05
-5.7563185691833496e-05
-5.885958671569824e-05
-5.9038400650024414e-05
-5.8710575103759766e-05
-5.866587162017822e-05
-5.924701690673828e-05
-6.090104579925537e-05
-6.382167339324951e-05
-6.785988807678223e-05
-7.294118404388428e-05
-7.872283458709717e-05
-8.496642112731934e-05
-9.12398099899292e-05
-9.733438491821289e-05
-0.00010295212268829346
-0.00010795891284942627
-0.00011220574378967285
-0.00011584162712097168
-0.0001189112663269043
-0.00012153387069702148
-0.00012388825416564941
-0.00012624263763427734
-0.00012861192226409912
-0.00013110041618347168
-0.00013397634029388428
-0.00013713538646697998
-0.00014066696166992188
-0.0001445561647415161
-0.0001487135887145996
-0.00015304982662200928
-0.0001576542854309082
-0.00016222894191741943
-0.00016678869724273682
-0.00017116963863372803
4.9620866775512695e-05
4.7832727432250977e-05
4.661083221435547e-05
4.6059489250183105e-05
4.6119093894958496e-05
4.652142524719238e-05
4.747509956359863e-05
4.8801302909851074e-05
5.041062831878662e-05
5.240738391876221e-05
5.462765693664551e-05
5.698204040527344e-05
5.950033664703369e-05
6.201863288879395e-05
6.446242332458496e-05
6.666779518127441e-05
6.856024265289307e-05
6.993114948272705e-05
7.066130638122559e-05
7.067620754241943e-05
6.988644599914551e-05
6.823241710662842e-05
6.559491157531738e-05
6.22868537902832e-05
5.81890344619751e-05
5.364418029785156e-05
4.883110523223877e-05
4.407763481140137e-05
3.9577484130859375e-05
3.583729267120361e-05
3.293156623840332e-05
3.1247735023498535e-05
3.1054019927978516e-05
3.267824649810791e-05
3.6343932151794434e-05
4.240870475769043e-05
5.109608173370361e-05
6.271898746490479e-05
7.763504981994629e-05
9.597837924957275e-05
0.00011806190013885498
0.0001437664031982422
0.00017298758029937744
0.00020517408847808838
0.00023952126502990723
0.0002750307321548462
0.00031003355979919434
0.0003428161144256592
0.0003712177276611328
0.0003931671380996704
0.00040665268898010254
0.0004100501537322998
0.0004023611545562744
0.000383526086807251
0.00035427510738372803
0.0003161132335662842
0.00027142465114593506
0.0002228766679763794
0.0001731961965560913
0.00012506544589996338
8.052587509155273e-05
4.1231513023376465e-05
8.150935173034668e-06
-1.8477439880371094e-05
-3.871321678161621e-05
-5.30928373336792e-05
-6.261467933654785e-05
-6.812810897827148e-05
-7.076561450958252e-05
-7.160007953643799e-05
-7.157027721405029e-05
-7.140636444091797e-05
-7.179379463195801e-05
-7.309019565582275e-05