# vtk DataFile Version 3.0
2D PINN Solution
ASCII
DATASET STRUCTURED_GRID
DIMENSIONS 100 100 1
POINTS 10000 float
-1.0 -1.0 0.0
-0.9797979797979798 -1.0 0.0
-0.9595959595959596 -1.0 0.0
-0.9393939393939394 -1.0 0.0
-0.9191919191919192 -1.0 0.0
-0.898989898989899 -1.0 0.0
-0.8787878787878788 -1.0 0.0
-0.8585858585858586 -1.0 0.0
-0.8383838383838383 -1.0 0.0
-0.8181818181818181 -1.0 0.0
-0.797979797979798 -1.0 0.0
-0.7777777777777778 -1.0 0.0
-0.7575757575757576 -1.0 0.0
-0.7373737373737373 -1.0 0.0
-0.7171717171717171 -1.0 0.0
-0.696969696969697 -1.0 0.0
-0.6767676767676767 -1.0 0.0
-0.6565656565656566 -1.0 0.0
-0.6363636363636364 -1.0 0.0
-0.6161616161616161 -1.0 0.0
-0.5959595959595959 -1.0 0.0
-0.5757575757575757 -1.0 0.0
-0.5555555555555556 -1.0 0.0
-0.5353535353535352 -1.0 0.0
-0.5151515151515151 -1.0 0.0
-0.4949494949494949 -1.0 0.0
-0.4747474747474747 -1.0 0.0
-0.4545454545454545 -1.0 0.0
-0.43434343434343425 -1.0 0.0
-0.41414141414141414 -1.0 0.0
-0.3939393939393939 -1.0 0.0
-0.3737373737373737 -1.0 0.0
-0.3535353535353535 -1.0 0.0
-0.33333333333333326 -1.0 0.0
-0.31313131313131304 -1.0 0.0
-0.2929292929292928 -1.0 0.0
-0.2727272727272727 -1.0 0.0
-0.2525252525252525 -1.0 0.0
-0.23232323232323226 -1.0 0.0
-0.21212121212121204 -1.0 0.0
-0.19191919191919182 -1.0 0.0
-0.1717171717171716 -1.0 0.0
-0.1515151515151515 -1.0 0.0
-0.13131313131313127 -1.0 0.0
-0.11111111111111105 -1.0 0.0
-0.09090909090909083 -1.0 0.0
-0.07070707070707061 -1.0 0.0
-0.050505050505050386 -1.0 0.0
-0.030303030303030276 -1.0 0.0
-0.010101010101010055 -1.0 0.0
0.010101010101010166 -1.0 0.0
0.030303030303030498 -1.0 0.0
0.05050505050505061 -1.0 0.0
0.07070707070707072 -1.0 0.0
0.09090909090909105 -1.0 0.0
0.11111111111111116 -1.0 0.0
0.1313131313131315 -1.0 0.0
0.1515151515151516 -1.0 0.0
0.1717171717171717 -1.0 0.0
0.19191919191919204 -1.0 0.0
0.21212121212121215 -1.0 0.0
0.2323232323232325 -1.0 0.0
0.2525252525252526 -1.0 0.0
0.27272727272727293 -1.0 0.0
0.29292929292929304 -1.0 0.0
0.31313131313131315 -1.0 0.0
0.3333333333333335 -1.0 0.0
0.3535353535353536 -1.0 0.0
0.3737373737373739 -1.0 0.0
0.39393939393939403 -1.0 0.0
0.41414141414141437 -1.0 0.0
0.4343434343434345 -1.0 0.0
0.4545454545454546 -1.0 0.0
0.4747474747474749 -1.0 0.0
0.49494949494949503 -1.0 0.0
0.5151515151515154 -1.0 0.0
0.5353535353535355 -1.0 0.0
0.5555555555555556 -1.0 0.0
0.5757575757575759 -1.0 0.0
0.595959595959596 -1.0 0.0
0.6161616161616164 -1.0 0.0
0.6363636363636365 -1.0 0.0
0.6565656565656568 -1.0 0.0
0.6767676767676769 -1.0 0.0
0.696969696969697 -1.0 0.0
0.7171717171717173 -1.0 0.0
0.7373737373737375 -1.0 0.0
0.7575757575757578 -1.0 0.0
0.7777777777777779 -1.0 0.0
0.7979797979797982 -1.0 0.0
0.8181818181818183 -1.0 0.0
0.8383838383838385 -1.0 0.0
0.8585858585858588 -1.0 0.0
0.8787878787878789 -1.0 0.0
0.8989898989898992 -1.0 0.0
0.9191919191919193 -1.0 0.0
0.9393939393939394 -1.0 0.0
0.9595959595959598 -1.0 0.0
0.9797979797979799 -1.0 0.0
1.0 -1.0 0.0
-1.0 -0.9797979797979798 0.0
-0.9797979797979798 -0.9797979797979798 0.0
-0.9595959595959596 -0.9797979797979798 0.0
-0.9393939393939394 -0.9797979797979798 0.0
-0.9191919191919192 -0.9797979797979798 0.0
-0.898989898989899 -0.9797979797979798 0.0
-0.8787878787878788 -0.9797979797979798 0.0
-0.8585858585858586 -0.9797979797979798 0.0
-0.8383838383838383 -0.9797979797979798 0.0
-0.8181818181818181 -0.9797979797979798 0.0
-0.797979797979798 -0.9797979797979798 0.0
-0.7777777777777778 -0.9797979797979798 0.0
-0.7575757575757576 -0.9797979797979798 0.0
-0.7373737373737373 -0.9797979797979798 0.0
-0.7171717171717171 -0.9797979797979798 0.0
-0.696969696969697 -0.9797979797979798 0.0
-0.6767676767676767 -0.9797979797979798 0.0
-0.6565656565656566 -0.9797979797979798 0.0
-0.6363636363636364 -0.9797979797979798 0.0
-0.6161616161616161 -0.9797979797979798 0.0
-0.5959595959595959 -0.9797979797979798 0.0
-0.5757575757575757 -0.9797979797979798 0.0
-0.5555555555555556 -0.9797979797979798 0.0
-0.5353535353535352 -0.9797979797979798 0.0
-0.5151515151515151 -0.9797979797979798 0.0
-0.4949494949494949 -0.9797979797979798 0.0
-0.4747474747474747 -0.9797979797979798 0.0
-0.4545454545454545 -0.9797979797979798 0.0
-0.43434343434343425 -0.9797979797979798 0.0
-0.41414141414141414 -0.9797979797979798 0.0
-0.3939393939393939 -0.9797979797979798 0.0
-0.3737373737373737 -0.9797979797979798 0.0
-0.3535353535353535 -0.9797979797979798 0.0
-0.33333333333333326 -0.9797979797979798 0.0
-0.31313131313131304 -0.9797979797979798 0.0
-0.2929292929292928 -0.9797979797979798 0.0
-0.2727272727272727 -0.9797979797979798 0.0
-0.2525252525252525 -0.9797979797979798 0.0
-0.23232323232323226 -0.9797979797979798 0.0
-0.21212121212121204 -0.9797979797979798 0.0
-0.19191919191919182 -0.9797979797979798 0.0
-0.1717171717171716 -0.9797979797979798 0.0
-0.1515151515151515 -0.9797979797979798 0.0
-0.13131313131313127 -0.9797979797979798 0.0
-0.11111111111111105 -0.9797979797979798 0.0
-0.09090909090909083 -0.9797979797979798 0.0
-0.07070707070707061 -0.9797979797979798 0.0
-0.050505050505050386 -0.9797979797979798 0.0
-0.030303030303030276 -0.9797979797979798 0.0
-0.010101010101010055 -0.9797979797979798 0.0
0.010101010101010166 -0.9797979797979798 0.0
0.030303030303030498 -0.9797979797979798 0.0
0.05050505050505061 -0.9797979797979798 0.0
0.07070707070707072 -0.9797979797979798 0.0
0.09090909090909105 -0.9797979797979798 0.0
0.11111111111111116 -0.9797979797979798 0.0
0.1313131313131315 -0.9797979797979798 0.0
0.1515151515151516 -0.9797979797979798 0.0
0.1717171717171717 -0.9797979797979798 0.0
0.19191919191919204 -0.9797979797979798 0.0
0.21212121212121215 -0.9797979797979798 0.0
0.2323232323232325 -0.9797979797979798 0.0
0.2525252525252526 -0.9797979797979798 0.0
0.27272727272727293 -0.9797979797979798 0.0
0.29292929292929304 -0.9797979797979798 0.0
0.31313131313131315 -0.9797979797979798 0.0
0.3333333333333335 -0.9797979797979798 0.0
0.3535353535353536 -0.9797979797979798 0.0
0.3737373737373739 -0.9797979797979798 0.0
0.39393939393939403 -0.9797979797979798 0.0
0.41414141414141437 -0.9797979797979798 0.0
0.4343434343434345 -0.9797979797979798 0.0
0.4545454545454546 -0.9797979797979798 0.0
0.4747474747474749 -0.9797979797979798 0.0
0.49494949494949503 -0.9797979797979798 0.0
0.5151515151515154 -0.9797979797979798 0.0
0.5353535353535355 -0.9797979797979798 0.0
0.5555555555555556 -0.9797979797979798 0.0
0.5757575757575759 -0.9797979797979798 0.0
0.595959595959596 -0.9797979797979798 0.0
0.6161616161616164 -0.9797979797979798 0.0
0.6363636363636365 -0.9797979797979798 0.0
0.6565656565656568 -0.9797979797979798 0.0
0.6767676767676769 -0.9797979797979798 0.0
0.696969696969697 -0.9797979797979798 0.0
0.7171717171717173 -0.9797979797979798 0.0
0.7373737373737375 -0.9797979797979798 0.0
0.7575757575757578 -0.9797979797979798 0.0
0.7777777777777779 -0.9797979797979798 0.0
0.7979797979797982 -0.9797979797979798 0.0
0.8181818181818183 -0.9797979797979798 0.0
0.8383838383838385 -0.9797979797979798 0.0
0.8585858585858588 -0.9797979797979798 0.0
0.8787878787878789 -0.9797979797979798 0.0
0.8989898989898992 -0.9797979797979798 0.0
0.9191919191919193 -0.9797979797979798 0.0
0.9393939393939394 -0.9797979797979798 0.0
0.9595959595959598 -0.9797979797979798 0.0
0.9797979797979799 -0.9797979797979798 0.0
1.0 -0.9797979797979798 0.0
-1.0 -0.9595959595959596 0.0
-0.9797979797979798 -0.9595959595959596 0.0
-0.9595959595959596 -0.9595959595959596 0.0
-0.9393939393939394 -0.9595959595959596 0.0
-0.9191919191919192 -0.9595959595959596 0.0
-0.898989898989899 -0.9595959595959596 0.0
-0.8787878787878788 -0.9595959595959596 0.0
-0.8585858585858586 -0.9595959595959596 0.0
-0.8383838383838383 -0.9595959595959596 0.0
-0.8181818181818181 -0.9595959595959596 0.0
-0.797979797979798 -0.9595959595959596 0.0
-0.7777777777777778 -0.9595959595959596 0.0
-0.7575757575757576 -0.9595959595959596 0.0
-0.7373737373737373 -0.9595959595959596 0.0
-0.7171717171717171 -0.9595959595959596 0.0
-0.696969696969697 -0.9595959595959596 0.0
-0.6767676767676767 -0.9595959595959596 0.0
-0.6565656565656566 -0.9595959595959596 0.0
-0.6363636363636364 -0.9595959595959596 0.0
-0.6161616161616161 -0.9595959595959596 0.0
-0.5959595959595959 -0.9595959595959596 0.0
-0.5757575757575757 -0.9595959595959596 0.0
-0.5555555555555556 -0.9595959595959596 0.0
-0.5353535353535352 -0.9595959595959596 0.0
-0.5151515151515151 -0.9595959595959596 0.0
-0.4949494949494949 -0.9595959595959596 0.0
-0.4747474747474747 -0.9595959595959596 0.0
-0.4545454545454545 -0.9595959595959596 0.0
-0.43434343434343425 -0.9595959595959596 0.0
-0.41414141414141414 -0.9595959595959596 0.0
-0.3939393939393939 -0.9595959595959596 0.0
-0.3737373737373737 -0.9595959595959596 0.0
-0.3535353535353535 -0.9595959595959596 0.0
-0.33333333333333326 -0.9595959595959596 0.0
-0.31313131313131304 -0.9595959595959596 0.0
-0.2929292929292928 -0.9595959595959596 0.0
-0.2727272727272727 -0.9595959595959596 0.0
-0.2525252525252525 -0.9595959595959596 0.0
-0.23232323232323226 -0.9595959595959596 0.0
-0.21212121212121204 -0.9595959595959596 0.0
-0.19191919191919182 -0.9595959595959596 0.0
-0.1717171717171716 -0.9595959595959596 0.0
-0.1515151515151515 -0.9595959595959596 0.0
-0.13131313131313127 -0.9595959595959596 0.0
-0.11111111111111105 -0.9595959595959596 0.0
-0.09090909090909083 -0.9595959595959596 0.0
-0.07070707070707061 -0.9595959595959596 0.0
-0.050505050505050386 -0.9595959595959596 0.0
-0.030303030303030276 -0.9595959595959596 0.0
-0.010101010101010055 -0.9595959595959596 0.0
0.010101010101010166 -0.9595959595959596 0.0
0.030303030303030498 -0.9595959595959596 0.0
0.05050505050505061 -0.9595959595959596 0.0
0.07070707070707072 -0.9595959595959596 0.0
0.09090909090909105 -0.9595959595959596 0.0
0.11111111111111116 -0.9595959595959596 0.0
0.1313131313131315 -0.9595959595959596 0.0
0.1515151515151516 -0.9595959595959596 0.0
0.1717171717171717 -0.9595959595959596 0.0
0.19191919191919204 -0.9595959595959596 0.0
0.21212121212121215 -0.9595959595959596 0.0
[...]
POINT_DATA 10000
SCALARS u float 1
LOOKUP_TABLE default
-0.00010573863983154297
-0.00011843442916870117
-0.00013078749179840088
-0.00014255940914154053
-0.0001535564661026001
-0.00016380846500396729
-0.00017295777797698975
-0.00018112361431121826
-0.00018806755542755127
-0.00019407272338867188
-0.00019897520542144775
-0.00020302832126617432
-0.0002063363790512085
-0.00020900368690490723
-0.00021141767501831055
-0.00021357834339141846
-0.00021582841873168945
-0.00021827220916748047
-0.00022102892398834229
-0.000224187970161438
-0.00022780895233154297
-0.00023183226585388184
-0.0002361685037612915
-0.00024080276489257812
-0.0002456754446029663
-0.0002505481243133545
-0.0002553313970565796
-0.0002598613500595093
-0.0002639889717102051
-0.0002675056457519531
-0.00027042627334594727
-0.00027251243591308594
-0.0002738088369369507
-0.00027430057525634766
-0.000273972749710083
-0.000273093581199646
-0.00027151405811309814
-0.0002695024013519287
-0.00026701390743255615
-0.00026416778564453125
-0.0002609938383102417
-0.00025738775730133057
-0.0002534240484237671
-0.0002489238977432251
-0.00024387240409851074
-0.00023818016052246094
-0.00023190677165985107
-0.00022496283054351807
-0.0002174079418182373
-0.0002094358205795288
-0.00020110607147216797
-0.0001926720142364502
-0.00018426775932312012
-0.000176161527633667
-0.00016860663890838623
-0.00016169250011444092
-0.00015567243099212646
-0.0001507103443145752
-0.00014679133892059326
-0.0001439899206161499
-0.00014227628707885742
-0.00014169514179229736
-0.00014200806617736816
-0.00014318525791168213
-0.00014518201351165771
-0.0001478046178817749
-0.00015081465244293213
-0.00015407800674438477
-0.00015750527381896973
-0.00016102194786071777
-0.0001644045114517212
-0.00016762316226959229
-0.00017060339450836182
-0.00017327070236206055
-0.00017561018466949463
-0.00017753243446350098
-0.00017911195755004883
-0.0001803189516067505
-0.00018128752708435059
-0.00018200278282165527
-0.00018255412578582764
-0.00018295645713806152
-0.0001833587884902954
-0.0001838207244873047
-0.0001843869686126709
-0.00018523633480072021
-0.0001862049102783203
-0.0001875162124633789
-0.00018903613090515137
-0.00019089877605438232
-0.00019285082817077637
-0.00019496679306030273
-0.0001971125602722168
-0.00019916892051696777
-0.00020100176334381104
-0.0002024918794631958
-0.00020350515842437744
-0.0002040266990661621
-0.00020384788513183594
-0.00020287930965423584
-0.0001100301742553711
-0.00012196600437164307
-0.00013349950313568115
-0.00014431774616241455
-0.0001544356346130371
-0.0001636892557144165
-0.00017201900482177734
-0.00017938017845153809
-0.00018578767776489258
-0.00019122660160064697
-0.00019587576389312744
-0.00019966065883636475
-0.0002028942108154297
-0.0002057105302810669
-0.0002082735300064087
-0.00021065771579742432
-0.00021320581436157227
-0.00021596252918243408
-0.00021910667419433594
-0.00022271275520324707
-0.00022676587104797363
-0.0002311617136001587
-0.00023595988750457764
-0.000241011381149292
-0.0002463310956954956
-0.0002517104148864746
-0.0002569854259490967
-0.0002619922161102295
-0.0002665668725967407
-0.0002705901861190796
-0.0002738386392593384
-0.0002763420343399048
-0.00027786195278167725
-0.00027839839458465576
-0.00027817487716674805
-0.00027701258659362793
-0.00027520954608917236
-0.00027267634868621826
-0.00026966631412506104
-0.00026610493659973145
-0.00026214122772216797
-0.00025770068168640137
-0.00025284290313720703
-0.00024756789207458496
-0.00024165213108062744
-0.00023524463176727295
-0.00022821128368377686
-0.00022058188915252686
-0.00021252036094665527
-0.00020399689674377441
-0.0001952648162841797
-0.00018647313117980957
-0.00017787516117095947
-0.00016963481903076172
-0.00016200542449951172
-0.0001552104949951172
-0.0001494288444519043
-0.0001446753740310669
-0.00014099478721618652
-0.00013859570026397705
-0.00013740360736846924
-0.00013723969459533691
-0.00013807415962219238
-0.0001398622989654541
-0.00014235079288482666
-0.00014543533325195312
-0.00014890730381011963
-0.00015272200107574463
-0.00015658140182495117
-0.00016044080257415771
-0.00016422569751739502
-0.00016775727272033691
-0.00017091631889343262
-0.00017374753952026367
-0.0001761913299560547
-0.00017820298671722412
-0.00017976760864257812
-0.0001809149980545044
-0.0001817643642425537
-0.00018225610256195068
-0.00018249452114105225
-0.00018256902694702148
-0.00018265843391418457
-0.0001827329397201538
-0.00018291175365447998
-0.00018331408500671387
-0.00018396973609924316
-0.00018499791622161865
-0.0001863241195678711
-0.00018799304962158203
-0.00018996000289916992
-0.00019219517707824707
-0.00019456446170806885
-0.00019688904285430908
-0.00019922852516174316
-0.0002012401819229126
-0.0002028942108154297
-0.00020396709442138672
-0.0002044886350631714
-0.00020419061183929443
-0.00011399388313293457
-0.00012513995170593262
-0.000135764479637146
-0.00014571845531463623
-0.00015497207641601562
-0.00016330182552337646
-0.00017085671424865723
-0.00017750263214111328
-0.00018337368965148926
-0.00018838047981262207
-0.0001927018165588379
-0.0001963973045349121
-0.00019966065883636475
-0.00020250678062438965
-0.00020518898963928223
-0.0002078711986541748
-0.0002107471227645874
-0.00021384656429290771
-0.00021736323833465576
-0.00022134184837341309
-0.00022573769092559814
-0.00023058056831359863
-0.00023578107357025146
-0.00024130940437316895
-0.00024697184562683105
-0.0002527087926864624
-0.00025835633277893066
-0.00026376545429229736
-0.0002687722444534302
-0.00027316808700561523
-0.0002767592668533325
-0.0002795010805130005
-0.0002812296152114868
-0.00028195977210998535
-0.0002816617488861084
-0.00028036534786224365
-0.00027820467948913574
-0.00027523934841156006
-0.0002716630697250366
-0.00026744604110717773
-0.0002627372741699219
-0.00025750696659088135
-0.00025187432765960693
-0.0002457946538925171
-0.0002391040325164795
-0.00023193657398223877
-0.00022421777248382568
-0.00021608173847198486
-0.00020742416381835938
-0.00019843876361846924
-0.00018933415412902832
-0.000180169939994812
-0.00017139315605163574
-0.00016304850578308105
-0.0001553744077682495
-0.00014863908290863037
-0.00014293193817138672
-0.0001383572816848755
-0.00013503432273864746
-0.00013297796249389648
-0.00013211369514465332
-0.00013241171836853027
-0.00013372302055358887
-0.00013592839241027832
-0.0001388639211654663
-0.00014244019985198975
-0.00014640390872955322
-0.00015057623386383057
-0.00015488266944885254
-0.00015912950038909912
-0.00016321241855621338
-0.00016698241233825684
-0.00017045438289642334
-0.00017346441745758057
-0.00017601251602172852
-0.0001780688762664795
-0.00017967820167541504
-0.00018084049224853516
-0.00018146634101867676
-0.0001817941665649414
-0.00018183887004852295
-0.0001816004514694214
-0.00018128752708435059
-0.0001809448003768921
-0.00018078088760375977
-0.00018070638179779053
-0.00018100440502166748
-0.00018163025379180908
-0.0001827329397201538
-0.00018423795700073242
-0.00018611550331115723
-0.00018839538097381592
-0.0001909881830215454
-0.00019368529319763184
-0.0001964569091796875
-0.000199049711227417
-0.00020137429237365723
-0.0002031773328781128
-0.0002043694257736206
-0.00020484626293182373
-0.00011757016181945801
-0.00012792646884918213
-0.00013771653175354004
-0.00014677643775939941
-0.0001551210880279541
-0.00016270577907562256
-0.00016948580741882324
-0.00017555058002471924
-0.00018087029457092285
-0.00018553435802459717
-0.00018969178199768066
-0.00019331276416778564
-0.0001964867115020752
-0.00019949674606323242
-0.00020238757133483887
-0.00020532310009002686
-0.0002084672451019287
-0.00021193921566009521
-0.00021579861640930176
-0.00022011995315551758
-0.00022491812705993652
-0.0002300739288330078
-0.00023564696311950684
-0.00024147331714630127
-0.0002474933862686157
-0.0002535581588745117
-0.00025957822799682617
-0.0002652406692504883
-0.0002705305814743042
-0.0002752244472503662
-0.000279158353805542
-0.00028215348720550537
-0.0002840310335159302
-0.00028483569622039795
-0.0002844482660293579
-0.0002830326557159424
-0.000280529260635376
-0.00027717649936676025
-0.0002730339765548706
-0.00026817619800567627
-0.00026282668113708496
-0.00025682151317596436
-0.0002504289150238037
-0.00024358928203582764
-0.00023618340492248535
-0.00022833049297332764
-0.00021998584270477295
-0.00021126866340637207
-0.00020210444927215576
-0.00019276142120361328
-0.00018328428268432617
-0.0001738518476486206
-0.00016483664512634277
-0.000156402587890625
-0.00014866888523101807
-0.00014191865921020508
-0.0001363605260848999
-0.00013196468353271484
-0.00012888014316558838
-0.00012709200382232666
-0.0001266002655029297
-0.0001272261142730713
-0.00012888014316558838
-0.00013153254985809326
-0.0001348555088043213
-0.00013880431652069092
-0.00014314055442810059
-0.00014773011207580566
-0.0001523047685623169
-0.00015692412853240967
-0.00016129016876220703
-0.0001653730869293213
-0.00016902387142181396
-0.0001722872257232666
-0.00017498433589935303
-0.00017715990543365479
-0.00017879903316497803
-0.0001798868179321289
-0.0001805126667022705
-0.00018067657947540283
-0.0001805424690246582
-0.00018006563186645508
-0.00017936527729034424
-0.00017867982387542725
-0.00017799437046051025
-0.00017753243446350098
-0.00017739832401275635
-0.00017762184143066406
-0.00017830729484558105
-0.00017961859703063965
-0.00018136203289031982
-0.00018364191055297852
-0.00018636882305145264
-0.00018937885761260986
-0.00019256770610809326
-0.0001958012580871582
-0.00019878149032592773
-0.00020138919353485107
-0.0002034604549407959
-0.0002047717571258545
-0.00012069940567016602
-0.0001302957534790039
-0.0001391768455505371
-0.0001475214958190918
-0.00015503168106079102
-0.0001618415117263794
-0.00016801059246063232
-0.0001735389232635498
-0.00017842650413513184
-0.00018283724784851074
-0.00018677115440368652
-0.0001903325319290161
-0.00019359588623046875
-0.00019672513008117676
-0.00019983947277069092
-0.00020302832126617432
-0.00020647048950195312
-0.00021025538444519043
-0.00021445751190185547
-0.00021910667419433594
-0.00022420287132263184
-0.00022970139980316162
-0.00023552775382995605
-0.00024159252643585205
-0.0002479255199432373
-0.00025422871112823486
-0.00026044249534606934
-0.00026635825634002686
-0.0002719461917877197
-0.00027686357498168945
-0.00028099119663238525
-0.00028415024280548096
-0.0002861917018890381
-0.0002870708703994751
-0.0002866685390472412
-0.0002850741147994995
-0.00028227269649505615
-0.0002785027027130127
-0.0002738088369369507
-0.00026841461658477783
-0.00026232004165649414
-0.0002557039260864258
-0.0002485811710357666
-0.00024096667766571045
-0.00023296475410461426
-0.0002244710922241211
-0.00021554529666900635
-0.00020629167556762695
-0.00019669532775878906
-0.000186920166015625
-0.00017711520195007324
-0.0001674741506576538
-0.00015822052955627441
-0.00014966726303100586
-0.00014191865921020508
-0.00013518333435058594
-0.00012962520122528076
-0.00012539327144622803
-0.00012256205081939697
-0.00012096762657165527
-0.00012066960334777832
-0.00012160837650299072
-0.00012364983558654785
-0.0001265406608581543
-0.00013016164302825928
-0.00013443827629089355
-0.00013904273509979248
-0.00014394521713256836
-0.00014889240264892578
-0.0001537799835205078
-0.00015838444232940674
-0.0001627206802368164
-0.00016666948795318604
-0.00017002224922180176
-0.0001729428768157959
-0.00017526745796203613
-0.00017705559730529785
-0.00017820298671722412
-0.00017881393432617188
-0.00017885863780975342
-0.00017848610877990723
-0.00017780065536499023
-0.00017686188220977783
-0.00017577409744262695
-0.00017468631267547607
-0.00017379224300384521
-0.00017313659191131592
-0.0001729130744934082
-0.0001732856035232544
-0.0001742243766784668
-0.0001757591962814331
-0.00017791986465454102
-0.00018070638179779053
-0.00018396973609924316
-0.0001875758171081543
-0.0001913607120513916
-0.00019508600234985352
-0.00019852817058563232
-0.00020150840282440186
-0.00020375847816467285
-0.00012350082397460938
-0.0001322925090789795
-0.0001404285430908203
-0.00014787912368774414
-0.00015471875667572021
-0.0001608729362487793
-0.00016649067401885986
-0.00017152726650238037
-0.0001761019229888916
-0.0001802295446395874
-0.00018408894538879395
-0.0001875758171081543
-0.00019091367721557617
-0.0001942664384841919
-0.00019754469394683838
-0.00020100176334381104
-0.00020475685596466064
-0.00020879507064819336
-0.0002133101224899292
-0.00021819770336151123
-0.00022359192371368408
-0.00022931396961212158
-0.00023540854454040527
-0.00024171173572540283
-0.0002481043338775635
-0.00025457143783569336
-0.00026097893714904785
-0.00026710331439971924
-0.00027285516262054443
-0.0002779662609100342
-0.00028227269649505615
-0.0002855658531188965
-0.0002877563238143921
-0.0002886056900024414
-0.0002881735563278198
-0.00028645992279052734
-0.00028346478939056396
-0.00027923285961151123
-0.0002740919589996338
-0.00026807188987731934
-0.0002613365650177002
-0.00025406479835510254
-0.0002462416887283325
-0.00023797154426574707
-0.00022935867309570312
-0.0002202242612838745
-0.00021082162857055664
-0.00020113587379455566
-0.00019106268882751465
-0.00018092989921569824
-0.00017082691192626953
-0.00016099214553833008
-0.0001515597105026245
-0.00014281272888183594
-0.00013497471809387207
-0.00012831389904022217
-0.00012284517288208008
-0.00011867284774780273
-0.00011596083641052246
-0.00011463463306427002
-0.00011453032493591309
-0.00011566281318664551
-0.00011789798736572266
-0.00012104213237762451
-0.00012487173080444336
-0.0001292973756790161
-0.00013418495655059814
-0.00013922154903411865
-0.00014442205429077148
-0.00014947354793548584
-0.00015433132648468018
-0.0001589059829711914
-0.0001630634069442749
-0.00016666948795318604
-0.00016976892948150635
-0.00017230212688446045
-0.0001741349697113037
-0.00017547607421875
-0.0001761019229888916
-0.000176161527633667
-0.0001757293939590454
-0.0001749098300933838
-0.00017370283603668213
-0.00017233192920684814
-0.00017088651657104492
-0.0001695007085800171
-0.00016839802265167236
-0.00016772747039794922
-0.00016760826110839844
-0.00016807019710540771
-0.00016933679580688477
-0.0001713484525680542
-0.00017412006855010986
-0.00017754733562469482
-0.00018152594566345215
-0.00018581748008728027
-0.00019022822380065918
-0.00019453465938568115
-0.00019851326942443848
-0.0002018660306930542
-0.0001258552074432373
-0.0001338571310043335
-0.00014130771160125732
-0.00014807283878326416
-0.00015428662300109863
-0.00015991926193237305
-0.00016498565673828125
-0.00016963481903076172
-0.0001738816499710083
-0.00017781555652618408
-0.000181540846824646
-0.00018516182899475098
-0.0001885741949081421
-0.0001919865608215332
-0.0001955479383468628
-0.00019928812980651855
-0.00020325183868408203
-0.0002075880765914917
-0.00021232664585113525
-0.00021752715110778809
-0.00022304058074951172
-0.00022895634174346924
-0.00023524463176727295
-0.00024165213108062744
-0.0002481788396835327
-0.0002547353506088257
-0.0002611428499221802
-0.0002673715353012085
-0.00027319788932800293
-0.00027845799922943115
-0.00028292834758758545
-0.0002863556146621704
-0.00028865039348602295
-0.00028955936431884766
-0.0002891272306442261
-0.0002872198820114136
-0.00028392672538757324
-0.0002794116735458374
-0.000273779034614563
-0.0002671778202056885
-0.00025995075702667236
-0.00025196373462677
-0.00024347007274627686
-0.00023464858531951904
-0.0002254098653793335
-0.0002157837152481079
-0.00020588934421539307
-0.00019566714763641357
-0.0001852661371231079
-0.0001748204231262207
-0.00016449391841888428
-0.00015436112880706787
-0.00014476478099822998
-0.00013592839241027832
-0.00012803077697753906
-0.00012135505676269531
-0.00011590123176574707
-0.00011184811592102051
-0.00010925531387329102
-0.00010804831981658936
-0.00010816752910614014
-0.00010943412780761719
-0.00011178851127624512
-0.00011505186557769775
-0.00011907517910003662
-0.00012347102165222168
-0.0001284480094909668
-0.0001335740089416504
-0.00013884902000427246
-0.0001440197229385376
-0.00014899671077728271
-0.00015367567539215088
-0.00015808641910552979
-0.00016191601753234863
-0.00016523897647857666
-0.00016795098781585693
-0.0001700669527053833
-0.00017145276069641113
-0.00017227232456207275
-0.00017248094081878662
-0.00017209351062774658
-0.00017121434211730957
-0.00016990303993225098
-0.00016827881336212158
-0.0001665651798248291
-0.00016480684280395508
-0.00016328692436218262
-0.00016213953495025635
-0.0001614391803741455
-0.0001614987850189209
-0.0001623779535293579
-0.00016404688358306885
-0.00016668438911437988
-0.00017014145851135254
-0.00017432868480682373
-0.00017914175987243652
-0.00018419325351715088
-0.00018933415412902832
-0.00019432604312896729
-0.00019872188568115234
-0.00012783706188201904
-0.0001351684331893921
-0.0001418590545654297
-0.00014802813529968262
-0.00015363097190856934
-0.00015875697135925293
-0.0001634061336517334
-0.0001677870750427246
-0.00017179548740386963
-0.00017558038234710693
-0.0001793503761291504
-0.00018292665481567383
-0.00018648803234100342
-0.0001901686191558838
-0.0001939237117767334
-0.0001977980136871338
-0.00020204484462738037
-0.0002066493034362793
-0.00021155178546905518
-0.0002168715000152588
-0.00022262334823608398
-0.00022871792316436768
-0.0002349764108657837
-0.00024136900901794434
-0.00024791061878204346
-0.0002544969320297241
-0.0002609044313430786
-0.00026716291904449463
-0.0002730339765548706
-0.00027833878993988037
-0.0002829432487487793
-0.0002864748239517212
-0.0002888143062591553
-0.0002898275852203369
-0.00028936564922332764
-0.0002873539924621582
-0.000283852219581604
-0.00027902424335479736
-0.00027292966842651367
-0.0002658665180206299
-0.0002579540014266968
-0.0002494603395462036
-0.00024043023586273193
-0.00023092329502105713
-0.00022114813327789307
-0.0002110302448272705
-0.0002006441354751587
-0.00019003450870513916
-0.00017927587032318115
-0.00016845762729644775
-0.00015787780284881592
-0.00014753639698028564
-0.00013783574104309082
-0.00012892484664916992
-0.00012104213237762451
-0.00011435151100158691
-0.00010898709297180176
-0.00010503828525543213
-0.00010254979133605957
-0.00010138750076293945
-0.00010158121585845947
-0.0001030266284942627
-0.00010541081428527832
-0.00010867416858673096
-0.00011263787746429443
-0.00011709332466125488
-0.00012198090553283691
-0.00012703239917755127
-0.00013221800327301025
-0.00013737380504608154
-0.0001423358917236328
-0.00014713406562805176
-0.00015151500701904297
-0.000155523419380188
-0.0001590251922607422
-0.00016197562217712402
-0.00016435980796813965
-0.00016604363918304443
-0.000167161226272583
-0.0001675635576248169
-0.00016734004020690918
-0.0001665353775024414
-0.0001652836799621582
-0.00016358494758605957
-0.00016167759895324707
-0.0001596510410308838
-0.0001577436923980713
-0.0001561194658279419
-0.00015503168106079102
-0.0001545250415802002
-0.00015494227409362793
-0.00015626847743988037
-0.00015857815742492676
-0.00016196072101593018
-0.00016620755195617676
-0.0001713186502456665
-0.0001769810914993286
-0.00018292665481567383
-0.0001888871192932129
-0.00019444525241851807
-0.00012940168380737305
-0.0001360774040222168
-0.00014221668243408203
-0.00014781951904296875
-0.00015291571617126465
-0.00015760958194732666
-0.00016196072101593018
-0.00016602873802185059
-0.00016985833644866943
-0.00017365813255310059
-0.00017736852169036865
-0.00018101930618286133
-0.0001847594976425171
-0.0001885443925857544
-0.00019249320030212402
-0.00019665062427520752
-0.00020107626914978027
-0.00020582973957061768
-0.00021098554134368896
-0.0002164095640182495
-0.00022220611572265625
-0.0002282857894897461
-0.00023452937602996826
-0.0002409517765045166
-0.0002473592758178711
-0.00025378167629241943
-0.0002601891756057739
-0.00026629865169525146
-0.000272214412689209
-0.000277593731880188
-0.0002821981906890869
-0.00028589367866516113
-0.0002884119749069214
-0.00028946995735168457
-0.00028896331787109375
-0.0002868920564651489
-0.0002832561731338501
-0.0002780407667160034
-0.00027160346508026123
-0.000264093279838562
-0.0002557039260864258
-0.00024656951427459717
-0.0002369135618209839