# vtk DataFile Version 3.0
2D PINN Solution
ASCII
DATASET STRUCTURED_GRID
DIMENSIONS 100 100 1
POINTS 10000 float
-1.0 -1.0 0.0
-0.9797979797979798 -1.0 0.0
-0.9595959595959596 -1.0 0.0
-0.9393939393939394 -1.0 0.0
-0.9191919191919192 -1.0 0.0
-0.898989898989899 -1.0 0.0
-0.8787878787878788 -1.0 0.0
-0.8585858585858586 -1.0 0.0
-0.8383838383838383 -1.0 0.0
-0.8181818181818181 -1.0 0.0
-0.797979797979798 -1.0 0.0
-0.7777777777777778 -1.0 0.0
-0.7575757575757576 -1.0 0.0
-0.7373737373737373 -1.0 0.0
-0.7171717171717171 -1.0 0.0
-0.696969696969697 -1.0 0.0
-0.6767676767676767 -1.0 0.0
-0.6565656565656566 -1.0 0.0
-0.6363636363636364 -1.0 0.0
-0.6161616161616161 -1.0 0.0
-0.5959595959595959 -1.0 0.0
-0.5757575757575757 -1.0 0.0
-0.5555555555555556 -1.0 0.0
-0.5353535353535352 -1.0 0.0
-0.5151515151515151 -1.0 0.0
-0.4949494949494949 -1.0 0.0
-0.4747474747474747 -1.0 0.0
-0.4545454545454545 -1.0 0.0
-0.43434343434343425 -1.0 0.0
-0.41414141414141414 -1.0 0.0
-0.3939393939393939 -1.0 0.0
-0.3737373737373737 -1.0 0.0
-0.3535353535353535 -1.0 0.0
-0.33333333333333326 -1.0 0.0
-0.31313131313131304 -1.0 0.0
-0.2929292929292928 -1.0 0.0
-0.2727272727272727 -1.0 0.0
-0.2525252525252525 -1.0 0.0
-0.23232323232323226 -1.0 0.0
-0.21212121212121204 -1.0 0.0
-0.19191919191919182 -1.0 0.0
-0.1717171717171716 -1.0 0.0
-0.1515151515151515 -1.0 0.0
-0.13131313131313127 -1.0 0.0
-0.11111111111111105 -1.0 0.0
-0.09090909090909083 -1.0 0.0
-0.07070707070707061 -1.0 0.0
-0.050505050505050386 -1.0 0.0
-0.030303030303030276 -1.0 0.0
-0.010101010101010055 -1.0 0.0
0.010101010101010166 -1.0 0.0
0.030303030303030498 -1.0 0.0
0.05050505050505061 -1.0 0.0
0.07070707070707072 -1.0 0.0
0.09090909090909105 -1.0 0.0
0.11111111111111116 -1.0 0.0
0.1313131313131315 -1.0 0.0
0.1515151515151516 -1.0 0.0
0.1717171717171717 -1.0 0.0
0.19191919191919204 -1.0 0.0
0.21212121212121215 -1.0 0.0
0.2323232323232325 -1.0 0.0
0.2525252525252526 -1.0 0.0
0.27272727272727293 -1.0 0.0
0.29292929292929304 -1.0 0.0
0.31313131313131315 -1.0 0.0
0.3333333333333335 -1.0 0.0
0.3535353535353536 -1.0 0.0
0.3737373737373739 -1.0 0.0
0.39393939393939403 -1.0 0.0
0.41414141414141437 -1.0 0.0
0.4343434343434345 -1.0 0.0
0.4545454545454546 -1.0 0.0
0.4747474747474749 -1.0 0.0
0.49494949494949503 -1.0 0.0
0.5151515151515154 -1.0 0.0
0.5353535353535355 -1.0 0.0
0.5555555555555556 -1.0 0.0
0.5757575757575759 -1.0 0.0
0.595959595959596 -1.0 0.0
0.6161616161616164 -1.0 0.0
0.6363636363636365 -1.0 0.0
0.6565656565656568 -1.0 0.0
0.6767676767676769 -1.0 0.0
0.696969696969697 -1.0 0.0
0.7171717171717173 -1.0 0.0
0.7373737373737375 -1.0 0.0
0.7575757575757578 -1.0 0.0
0.7777777777777779 -1.0 0.0
0.7979797979797982 -1.0 0.0
0.8181818181818183 -1.0 0.0
0.8383838383838385 -1.0 0.0
0.8585858585858588 -1.0 0.0
0.8787878787878789 -1.0 0.0
0.8989898989898992 -1.0 0.0
0.9191919191919193 -1.0 0.0
0.9393939393939394 -1.0 0.0
0.9595959595959598 -1.0 0.0
0.9797979797979799 -1.0 0.0
1.0 -1.0 0.0
-1.0 -0.9797979797979798 0.0
-0.9797979797979798 -0.9797979797979798 0.0
-0.9595959595959596 -0.9797979797979798 0.0
-0.9393939393939394 -0.9797979797979798 0.0
-0.9191919191919192 -0.9797979797979798 0.0
-0.898989898989899 -0.9797979797979798 0.0
-0.8787878787878788 -0.9797979797979798 0.0
-0.8585858585858586 -0.9797979797979798 0.0
-0.8383838383838383 -0.9797979797979798 0.0
-0.8181818181818181 -0.9797979797979798 0.0
-0.797979797979798 -0.9797979797979798 0.0
-0.7777777777777778 -0.9797979797979798 0.0
-0.7575757575757576 -0.9797979797979798 0.0
-0.7373737373737373 -0.9797979797979798 0.0
-0.7171717171717171 -0.9797979797979798 0.0
-0.696969696969697 -0.9797979797979798 0.0
-0.6767676767676767 -0.9797979797979798 0.0
-0.6565656565656566 -0.9797979797979798 0.0
-0.6363636363636364 -0.9797979797979798 0.0
-0.6161616161616161 -0.9797979797979798 0.0
-0.5959595959595959 -0.9797979797979798 0.0
-0.5757575757575757 -0.9797979797979798 0.0
-0.5555555555555556 -0.9797979797979798 0.0
-0.5353535353535352 -0.9797979797979798 0.0
-0.5151515151515151 -0.9797979797979798 0.0
-0.4949494949494949 -0.9797979797979798 0.0
-0.4747474747474747 -0.9797979797979798 0.0
-0.4545454545454545 -0.9797979797979798 0.0
-0.43434343434343425 -0.9797979797979798 0.0
-0.41414141414141414 -0.9797979797979798 0.0
-0.3939393939393939 -0.9797979797979798 0.0
-0.3737373737373737 -0.9797979797979798 0.0
-0.3535353535353535 -0.9797979797979798 0.0
-0.33333333333333326 -0.9797979797979798 0.0
-0.31313131313131304 -0.9797979797979798 0.0
-0.2929292929292928 -0.9797979797979798 0.0
-0.2727272727272727 -0.9797979797979798 0.0
-0.2525252525252525 -0.9797979797979798 0.0
-0.23232323232323226 -0.9797979797979798 0.0
-0.21212121212121204 -0.9797979797979798 0.0
-0.19191919191919182 -0.9797979797979798 0.0
-0.1717171717171716 -0.9797979797979798 0.0
-0.1515151515151515 -0.9797979797979798 0.0
-0.13131313131313127 -0.9797979797979798 0.0
-0.11111111111111105 -0.9797979797979798 0.0
-0.09090909090909083 -0.9797979797979798 0.0
-0.07070707070707061 -0.9797979797979798 0.0
-0.050505050505050386 -0.9797979797979798 0.0
-0.030303030303030276 -0.9797979797979798 0.0
-0.010101010101010055 -0.9797979797979798 0.0
0.010101010101010166 -0.9797979797979798 0.0
0.030303030303030498 -0.9797979797979798 0.0
0.05050505050505061 -0.9797979797979798 0.0
0.07070707070707072 -0.9797979797979798 0.0
0.09090909090909105 -0.9797979797979798 0.0
0.11111111111111116 -0.9797979797979798 0.0
0.1313131313131315 -0.9797979797979798 0.0
0.1515151515151516 -0.9797979797979798 0.0
0.1717171717171717 -0.9797979797979798 0.0
0.19191919191919204 -0.9797979797979798 0.0
0.21212121212121215 -0.9797979797979798 0.0
0.2323232323232325 -0.9797979797979798 0.0
0.2525252525252526 -0.9797979797979798 0.0
0.27272727272727293 -0.9797979797979798 0.0
0.29292929292929304 -0.9797979797979798 0.0
0.31313131313131315 -0.9797979797979798 0.0
0.3333333333333335 -0.9797979797979798 0.0
0.3535353535353536 -0.9797979797979798 0.0
0.3737373737373739 -0.9797979797979798 0.0
0.39393939393939403 -0.9797979797979798 0.0
0.41414141414141437 -0.9797979797979798 0.0
0.4343434343434345 -0.9797979797979798 0.0
0.4545454545454546 -0.9797979797979798 0.0
0.4747474747474749 -0.9797979797979798 0.0
0.49494949494949503 -0.9797979797979798 0.0
0.5151515151515154 -0.9797979797979798 0.0
0.5353535353535355 -0.9797979797979798 0.0
0.5555555555555556 -0.9797979797979798 0.0
0.5757575757575759 -0.9797979797979798 0.0
0.595959595959596 -0.9797979797979798 0.0
0.6161616161616164 -0.9797979797979798 0.0
0.6363636363636365 -0.9797979797979798 0.0
0.6565656565656568 -0.9797979797979798 0.0
0.6767676767676769 -0.9797979797979798 0.0
0.696969696969697 -0.9797979797979798 0.0
0.7171717171717173 -0.9797979797979798 0.0
0.7373737373737375 -0.9797979797979798 0.0
0.7575757575757578 -0.9797979797979798 0.0
0.7777777777777779 -0.9797979797979798 0.0
0.7979797979797982 -0.9797979797979798 0.0
0.8181818181818183 -0.9797979797979798 0.0
0.8383838383838385 -0.9797979797979798 0.0
0.8585858585858588 -0.9797979797979798 0.0
0.8787878787878789 -0.9797979797979798 0.0
0.8989898989898992 -0.9797979797979798 0.0
0.9191919191919193 -0.9797979797979798 0.0
0.9393939393939394 -0.9797979797979798 0.0
0.9595959595959598 -0.9797979797979798 0.0
0.9797979797979799 -0.9797979797979798 0.0
1.0 -0.9797979797979798 0.0
-1.0 -0.9595959595959596 0.0
-0.9797979797979798 -0.9595959595959596 0.0
-0.9595959595959596 -0.9595959595959596 0.0
-0.9393939393939394 -0.9595959595959596 0.0
-0.9191919191919192 -0.9595959595959596 0.0
-0.898989898989899 -0.9595959595959596 0.0
-0.8787878787878788 -0.9595959595959596 0.0
-0.8585858585858586 -0.9595959595959596 0.0
-0.8383838383838383 -0.9595959595959596 0.0
-0.8181818181818181 -0.9595959595959596 0.0
-0.797979797979798 -0.9595959595959596 0.0
-0.7777777777777778 -0.9595959595959596 0.0
-0.7575757575757576 -0.9595959595959596 0.0
-0.7373737373737373 -0.9595959595959596 0.0
-0.7171717171717171 -0.9595959595959596 0.0
-0.696969696969697 -0.9595959595959596 0.0
-0.6767676767676767 -0.9595959595959596 0.0
-0.6565656565656566 -0.9595959595959596 0.0
-0.6363636363636364 -0.9595959595959596 0.0
-0.6161616161616161 -0.9595959595959596 0.0
-0.5959595959595959 -0.9595959595959596 0.0
-0.5757575757575757 -0.9595959595959596 0.0
-0.5555555555555556 -0.9595959595959596 0.0
-0.5353535353535352 -0.9595959595959596 0.0
-0.5151515151515151 -0.9595959595959596 0.0
-0.4949494949494949 -0.9595959595959596 0.0
-0.4747474747474747 -0.9595959595959596 0.0
-0.4545454545454545 -0.9595959595959596 0.0
-0.43434343434343425 -0.9595959595959596 0.0
-0.41414141414141414 -0.9595959595959596 0.0
-0.3939393939393939 -0.9595959595959596 0.0
-0.3737373737373737 -0.9595959595959596 0.0
-0.3535353535353535 -0.9595959595959596 0.0
-0.33333333333333326 -0.9595959595959596 0.0
-0.31313131313131304 -0.9595959595959596 0.0
-0.2929292929292928 -0.9595959595959596 0.0
-0.2727272727272727 -0.9595959595959596 0.0
-0.2525252525252525 -0.9595959595959596 0.0
-0.23232323232323226 -0.9595959595959596 0.0
-0.21212121212121204 -0.9595959595959596 0.0
-0.19191919191919182 -0.9595959595959596 0.0
-0.1717171717171716 -0.9595959595959596 0.0
-0.1515151515151515 -0.9595959595959596 0.0
-0.13131313131313127 -0.9595959595959596 0.0
-0.11111111111111105 -0.9595959595959596 0.0
-0.09090909090909083 -0.9595959595959596 0.0
-0.07070707070707061 -0.9595959595959596 0.0
-0.050505050505050386 -0.9595959595959596 0.0
-0.030303030303030276 -0.9595959595959596 0.0
-0.010101010101010055 -0.9595959595959596 0.0
0.010101010101010166 -0.9595959595959596 0.0
0.030303030303030498 -0.9595959595959596 0.0
0.05050505050505061 -0.9595959595959596 0.0
0.07070707070707072 -0.9595959595959596 0.0
0.09090909090909105 -0.9595959595959596 0.0
0.11111111111111116 -0.9595959595959596 0.0
0.1313131313131315 -0.9595959595959596 0.0
0.1515151515151516 -0.9595959595959596 0.0
0.1717171717171717 -0.9595959595959596 0.0
0.19191919191919204 -0.9595959595959596 0.0
0.21212121212121215 -0.9595959595959596 0.0
[...]
POINT_DATA 10000
SCALARS u float 1
LOOKUP_TABLE default
-6.768107414245605e-05
-7.925927639007568e-05
-9.059906005859375e-05
-0.00010150671005249023
-0.00011180341243743896
-0.0001214146614074707
-0.0001302659511566162
-0.0001382976770401001
-0.00014545023441314697
-0.0001519322395324707
-0.0001576840877532959
-0.00016295909881591797
-0.00016769766807556152
-0.000172346830368042
-0.00017680227756500244
-0.00018131732940673828
-0.00018590688705444336
-0.00019069015979766846
-0.00019565224647521973
-0.0002009272575378418
-0.00020641088485717773
-0.0002120286226272583
-0.00021786987781524658
-0.00022369623184204102
-0.00022962689399719238
-0.00023555755615234375
-0.00024144351482391357
-0.0002472996711730957
-0.0002530813217163086
-0.00025878846645355225
-0.0002643764019012451
-0.00026977062225341797
-0.0002747774124145508
-0.00027951598167419434
-0.00028370320796966553
-0.00028717517852783203
-0.0002898871898651123
-0.00029177963733673096
-0.0002926439046859741
-0.00029252469539642334
-0.0002913177013397217
-0.0002891272306442261
-0.0002860426902770996
-0.0002820342779159546
-0.0002772808074951172
-0.00027185678482055664
-0.00026582181453704834
-0.00025935471057891846
-0.00025241076946258545
-0.0002451986074447632
-0.0002377331256866455
-0.00022996962070465088
-0.00022211670875549316
-0.00021415948867797852
-0.00020614266395568848
-0.00019821524620056152
-0.00019034743309020996
-0.0001827031373977661
-0.0001752227544784546
-0.00016817450523376465
-0.0001614689826965332
-0.00015522539615631104
-0.00014950335025787354
-0.0001443326473236084
-0.0001398026943206787
-0.00013586878776550293
-0.0001324862241744995
-0.00012978911399841309
-0.00012761354446411133
-0.00012607872486114502
-0.00012499094009399414
-0.00012439489364624023
-0.0001242607831954956
-0.00012451410293579102
-0.00012524425983428955
-0.00012627243995666504
-0.00012771785259246826
-0.00012946128845214844
-0.00013156235218048096
-0.00013399124145507812
-0.00013682246208190918
-0.00013999640941619873
-0.00014352798461914062
-0.00014741718769073486
-0.00015152990818023682
-0.00015597045421600342
-0.00016051530838012695
-0.0001652538776397705
-0.00016999244689941406
-0.00017464160919189453
-0.00017912685871124268
-0.00018325448036193848
-0.0001869797706604004
-0.0001901388168334961
-0.0001926422119140625
-0.00019443035125732422
-0.0001954585313796997
-0.00019562244415283203
-0.0001948326826095581
-0.0001932084560394287
-7.003545761108398e-05
-8.095800876617432e-05
-9.146332740783691e-05
-0.00010159611701965332
-0.00011116266250610352
-0.00012005865573883057
-0.00012826919555664062
-0.00013566017150878906
-0.00014230608940124512
-0.0001483708620071411
-0.0001537799835205078
-0.00015881657600402832
-0.00016352534294128418
-0.00016807019710540771
-0.00017258524894714355
-0.00017720460891723633
-0.00018197298049926758
-0.0001869499683380127
-0.00019221007823944092
-0.0001977384090423584
-0.00020347535610198975
-0.00020942091941833496
-0.00021548569202423096
-0.0002215653657913208
-0.00022771954536437988
-0.00023379921913146973
-0.00023981928825378418
-0.0002457946538925171
-0.0002516210079193115
-0.0002572983503341675
-0.0002628415822982788
-0.00026820600032806396
-0.00027336180210113525
-0.0002780705690383911
-0.00028227269649505615
-0.00028586387634277344
-0.00028865039348602295
-0.000290602445602417
-0.00029149651527404785
-0.00029140710830688477
-0.00029021501541137695
-0.00028790533542633057
-0.0002847015857696533
-0.0002805739641189575
-0.0002755671739578247
-0.00026991963386535645
-0.0002636909484863281
-0.0002570152282714844
-0.0002499222755432129
-0.00024256110191345215
-0.00023503601551055908
-0.00022736191749572754
-0.0002196282148361206
-0.00021184980869293213
-0.0002041161060333252
-0.0001964569091796875
-0.00018905103206634521
-0.00018183887004852295
-0.00017493963241577148
-0.0001684427261352539
-0.00016236305236816406
-0.0001566857099533081
-0.00015163421630859375
-0.0001471191644668579
-0.00014322996139526367
-0.0001398622989654541
-0.00013713538646697998
-0.00013488531112670898
-0.00013324618339538574
-0.00013214349746704102
-0.00013136863708496094
-0.0001312345266342163
-0.0001313239336013794
-0.00013180077075958252
-0.00013256072998046875
-0.00013358891010284424
-0.00013493001461029053
-0.00013652443885803223
-0.0001383572816848755
-0.0001404881477355957
-0.00014293193817138672
-0.0001456737518310547
-0.00014868378639221191
-0.00015209615230560303
-0.0001558363437652588
-0.00015975534915924072
-0.00016394257545471191
-0.00016832351684570312
-0.00017283856868743896
-0.00017727911472320557
-0.00018167495727539062
-0.00018577277660369873
-0.0001894533634185791
-0.00019273161888122559
-0.00019539892673492432
-0.00019735097885131836
-0.00019848346710205078
-0.00019879639148712158
-0.00019817054271697998
-0.00019665062427520752
-7.198750972747803e-05
-8.210539817810059e-05
-9.192526340484619e-05
-0.00010129809379577637
-0.00011016428470611572
-0.00011831521987915039
-0.00012587010860443115
-0.00013276934623718262
-0.00013893842697143555
-0.0001446157693862915
-0.0001497715711593628
-0.00015459954738616943
-0.00015914440155029297
-0.00016370415687561035
-0.0001682490110397339
-0.0001729428768157959
-0.00017787516117095947
-0.00018310546875
-0.00018855929374694824
-0.00019432604312896729
-0.00020036101341247559
-0.0002065598964691162
-0.00021286308765411377
-0.00021919608116149902
-0.00022548437118530273
-0.0002316683530807495
-0.0002377927303314209
-0.0002437680959701538
-0.0002496093511581421
-0.0002553015947341919
-0.0002608448266983032
-0.0002662092447280884
-0.0002713203430175781
-0.0002760589122772217
-0.00028036534786224365
-0.00028406083583831787
-0.00028693675994873047
-0.0002889484167098999
-0.00028999149799346924
-0.0002899169921875
-0.0002887845039367676
-0.0002865046262741089
-0.00028318166732788086
-0.00027891993522644043
-0.000273779034614563
-0.00026801228523254395
-0.0002615302801132202
-0.00025466084480285645
-0.00024740397930145264
-0.0002399235963821411
-0.0002322942018508911
-0.00022459030151367188
-0.0002168118953704834
-0.000209122896194458
-0.00020162761211395264
-0.00019425153732299805
-0.00018706917762756348
-0.0001802295446395874
-0.00017374753952026367
-0.00016763806343078613
-0.00016205012798309326
-0.00015695393085479736
-0.00015240907669067383
-0.0001484602689743042
-0.00014507770538330078
-0.00014227628707885742
-0.00014010071754455566
-0.00013843178749084473
-0.00013728439807891846
-0.0001366138458251953
-0.00013634562492370605
-0.00013650953769683838
-0.00013689696788787842
-0.00013762712478637695
-0.0001385509967803955
-0.00013975799083709717
-0.00014106929302215576
-0.00014258921146392822
-0.000144273042678833
-0.00014622509479522705
-0.0001483708620071411
-0.0001507401466369629
-0.00015340745449066162
-0.00015641748905181885
-0.00015966594219207764
-0.00016327202320098877
-0.00016711652278900146
-0.00017124414443969727
-0.00017543137073516846
-0.00017973780632019043
-0.000183984637260437
-0.00018803775310516357
-0.00019183754920959473
-0.00019519031047821045
-0.0001979619264602661
-0.00020004808902740479
-0.00020143389701843262
-0.00020188093185424805
-0.0002014636993408203
-0.00020009279251098633
-7.346272468566895e-05
-8.288025856018066e-05
-9.195506572723389e-05
-0.00010062754154205322
-0.00010882318019866943
-0.0001163482666015625
-0.0001232922077178955
-0.00012968480587005615
-0.0001354813575744629
-0.00014075636863708496
-0.00014559924602508545
-0.00015021860599517822
-0.0001547485589981079
-0.00015926361083984375
-0.00016380846500396729
-0.00016857683658599854
-0.00017365813255310059
-0.00017909705638885498
-0.00018481910228729248
-0.00019077956676483154
-0.00019700825214385986
-0.0002034604549407959
-0.00020992755889892578
-0.0002164095640182495
-0.00022286176681518555
-0.0002291351556777954
-0.00023527443408966064
-0.00024121999740600586
-0.00024709105491638184
-0.0002527087926864624
-0.00025825202465057373
-0.0002635568380355835
-0.0002686232328414917
-0.00027342140674591064
-0.0002777576446533203
-0.0002815425395965576
-0.0002845972776412964
-0.0002867579460144043
-0.0002879202365875244
-0.0002879798412322998
-0.00028696656227111816
-0.00028474628925323486
-0.0002814382314682007
-0.0002771914005279541
-0.0002719610929489136
-0.0002660304307937622
-0.0002594292163848877
-0.0002523660659790039
-0.0002449452877044678
-0.0002372264862060547
-0.00022943317890167236
-0.0002216547727584839
-0.00021383166313171387
-0.00020614266395568848
-0.0001986473798751831
-0.0001913905143737793
-0.0001843869686126709
-0.00017780065536499023
-0.00017158687114715576
-0.00016586482524871826
-0.00016060471534729004
-0.00015589594841003418
-0.00015188753604888916
-0.00014834105968475342
-0.00014548003673553467
-0.00014321506023406982
-0.00014150142669677734
-0.00014035403728485107
-0.00013969838619232178
-0.0001394897699356079
-0.00013972818851470947
-0.000140264630317688
-0.00014102458953857422
-0.0001421123743057251
-0.0001433044672012329
-0.00014457106590270996
-0.00014603137969970703
-0.0001475512981414795
-0.00014926493167877197
-0.000151023268699646
-0.0001529604196548462
-0.0001550912857055664
-0.00015744566917419434
-0.00016009807586669922
-0.00016304850578308105
-0.0001663118600845337
-0.00016982853412628174
-0.00017364323139190674
-0.00017768144607543945
-0.0001819133758544922
-0.00018607079982757568
-0.00019015371799468994
-0.00019401311874389648
-0.00019744038581848145
-0.00020040571689605713
-0.00020270049571990967
-0.00020422041416168213
-0.00020487606525421143
-0.00020466744899749756
-0.0002034306526184082
-7.461011409759521e-05
-8.328258991241455e-05
-9.165704250335693e-05
-9.967386722564697e-05
-0.00010716915130615234
-0.0001141279935836792
-0.00012055039405822754
-0.00012643635272979736
-0.00013181567192077637
-0.00013679265975952148
-0.0001414269208908081
-0.00014588236808776855
-0.0001503080129623413
-0.00015471875667572021
-0.0001593083143234253
-0.00016418099403381348
-0.00016939640045166016
-0.00017493963241577148
-0.00018087029457092285
-0.00018709897994995117
-0.00019347667694091797
-0.00020000338554382324
-0.00020672380924224854
-0.00021338462829589844
-0.00021988153457641602
-0.00022622942924499512
-0.0002322942018508911
-0.00023819506168365479
-0.00024390220642089844
-0.0002494603395462036
-0.00025482475757598877
-0.00026012957096099854
-0.00026519596576690674
-0.0002700239419937134
-0.00027441978454589844
-0.00027829408645629883
-0.00028152763843536377
-0.0002838820219039917
-0.0002852976322174072
-0.0002855956554412842
-0.00028471648693084717
-0.00028264522552490234
-0.0002794116735458374
-0.0002751648426055908
-0.0002699345350265503
-0.000263899564743042
-0.00025719404220581055
-0.00024993717670440674
-0.00024233758449554443
-0.00023445487022399902
-0.00022652745246887207
-0.00021848082542419434
-0.00021053850650787354
-0.00020278990268707275
-0.0001952052116394043
-0.0001879185438156128
-0.00018104910850524902
-0.00017455220222473145
-0.00016848742961883545
-0.00016297399997711182
-0.00015801191329956055
-0.00015366077423095703
-0.00014998018741607666
-0.00014685094356536865
-0.0001443624496459961
-0.00014258921146392822
-0.00014136731624603271
-0.00014069676399230957
-0.0001405179500579834
-0.00014084577560424805
-0.0001415461301803589
-0.00014247000217437744
-0.0001436471939086914
-0.00014504790306091309
-0.0001465529203414917
-0.0001481175422668457
-0.00014972686767578125
-0.00015142560005187988
-0.00015306472778320312
-0.0001548081636428833
-0.00015661120414733887
-0.0001585930585861206
-0.00016070902347564697
-0.0001631230115890503
-0.00016570091247558594
-0.000168725848197937
-0.0001720041036605835
-0.00017556548118591309
-0.00017942488193511963
-0.0001834779977798462
-0.00018765032291412354
-0.00019177794456481934
-0.00019575655460357666
-0.0001993328332901001
-0.00020250678062438965
-0.00020503997802734375
-0.00020681321620941162
-0.00020772218704223633
-0.00020767748355865479
-0.0002066493034362793
-7.531046867370605e-05
-8.337199687957764e-05
-9.106099605560303e-05
-9.839236736297607e-05
-0.000105246901512146
-0.00011172890663146973
-0.0001176595687866211
-0.00012311339378356934
-0.0001281648874282837
-0.0001328587532043457
-0.0001372694969177246
-0.00014156103134155273
-0.000145837664604187
-0.00015023350715637207
-0.0001548677682876587
-0.00015974044799804688
-0.00016501545906066895
-0.00017073750495910645
-0.00017677247524261475
-0.00018312036991119385
-0.0001897662878036499
-0.00019650161266326904
-0.00020322203636169434
-0.00020991265773773193
-0.0002164095640182495
-0.00022272765636444092
-0.00022876262664794922
-0.00023449957370758057
-0.0002400726079940796
-0.0002454817295074463
-0.0002507120370864868
-0.00025588274002075195
-0.00026085972785949707
-0.00026573240756988525
-0.00027029216289520264
-0.0002742856740951538
-0.0002777576446533203
-0.00028039515018463135
-0.0002820044755935669
-0.0002826005220413208
-0.0002819448709487915
-0.0002801269292831421
-0.00027711689472198486
-0.000272899866104126
-0.000267714262008667
-0.00026160478591918945
-0.0002548694610595703
-0.0002474486827850342
-0.0002396106719970703
-0.00023153424263000488
-0.00022335350513458252
-0.00021505355834960938
-0.0002069622278213501
-0.0001990199089050293
-0.0001913011074066162
-0.00018388032913208008
-0.00017693638801574707
-0.0001704096794128418
-0.0001644343137741089
-0.00015905499458312988
-0.00015425682067871094
-0.00015009939670562744
-0.00014667212963104248
-0.00014387071132659912
-0.00014184415340423584
-0.00014039874076843262
-0.0001396387815475464
-0.00013943016529083252
-0.00013972818851470947
-0.0001405477523803711
-0.00014165043830871582
-0.00014314055442810059
-0.00014476478099822998
-0.000146523118019104
-0.00014841556549072266
-0.0001503080129623413
-0.00015214085578918457
-0.00015397369861602783
-0.0001558065414428711
-0.00015753507614135742
-0.00015923380851745605
-0.00016114115715026855
-0.0001630634069442749
-0.00016520917415618896
-0.00016757845878601074
-0.00017027556896209717
-0.00017333030700683594
-0.00017674267292022705
-0.00018039345741271973
-0.0001844167709350586
-0.0001885741949081421
-0.00019279122352600098
-0.00019691884517669678
-0.00020077824592590332
-0.00020417571067810059
-0.00020700693130493164
-0.00020907819271087646
-0.00021022558212280273
-0.0002104640007019043
-0.00020959973335266113
-7.574260234832764e-05
-8.304417133331299e-05
-9.012222290039062e-05
-9.684264659881592e-05
-0.00010320544242858887
-0.00010910630226135254
-0.00011464953422546387
-0.00011968612670898438
-0.00012445449829101562
-0.00012883543968200684
-0.00013306736946105957
-0.00013719499111175537
-0.00014141201972961426
-0.00014573335647583008
-0.00015035271644592285
-0.00015535950660705566
-0.00016067922115325928
-0.00016643106937408447
-0.00017261505126953125
-0.00017906725406646729
-0.00018577277660369873
-0.0001925826072692871
-0.00019934773445129395
-0.00020608305931091309
-0.00021255016326904297
-0.00021864473819732666
-0.00022456049919128418
-0.00023011863231658936
-0.00023549795150756836
-0.0002407282590866089
-0.0002458244562149048
-0.0002508312463760376
-0.00025582313537597656
-0.00026069581508636475
-0.00026535987854003906
-0.00026954710483551025
-0.00027327239513397217
-0.0002761334180831909
-0.0002781599760055542
-0.0002790391445159912
-0.00027871131896972656
-0.00027714669704437256
-0.00027427077293395996
-0.0002703368663787842
-0.0002652853727340698
-0.0002591758966445923
-0.00025229156017303467
-0.0002447664737701416
-0.00023677945137023926
-0.00022844970226287842
-0.0002199411392211914
-0.0002114325761795044
-0.00020295381546020508
-0.00019469857215881348
-0.00018674135208129883
-0.00017921626567840576
-0.00017198920249938965
-0.0001653730869293213
-0.000159338116645813
-0.00015391409397125244
-0.00014913082122802734
-0.00014515221118927002
-0.00014197826385498047
-0.00013947486877441406
-0.0001377016305923462
-0.0001366734504699707
-0.00013637542724609375
-0.00013656914234161377
-0.00013741850852966309
-0.00013870000839233398
-0.00014033913612365723
-0.00014223158359527588
-0.00014437735080718994
-0.00014662742614746094
-0.00014889240264892578
-0.00015112757682800293
-0.00015328824520111084
-0.00015538930892944336
-0.000157281756401062
-0.00015912950038909912
-0.00016094744205474854
-0.00016261637210845947
-0.00016450881958007812
-0.00016643106937408447
-0.0001685619354248047
-0.00017105042934417725
-0.00017383694648742676
-0.00017699599266052246
-0.00018055737018585205
-0.00018447637557983398
-0.00018870830535888672
-0.0001929551362991333
-0.00019730627536773682
-0.000201493501663208
-0.00020523369312286377
-0.00020842254161834717
-0.0002108365297317505
-0.00021238625049591064
-0.0002129077911376953
-0.0002123117446899414
-7.575750350952148e-05
-8.241832256317139e-05
-8.891522884368896e-05
-9.50843095779419e-05
-0.00010094046592712402
-0.00010637938976287842
-0.00011152029037475586
-0.00011622905731201172
-0.00012065470218658447
-0.00012484192848205566
-0.00012890994548797607
-0.0001329183578491211
-0.00013697147369384766
-0.00014127790927886963
-0.00014585256576538086
-0.00015082955360412598
-0.00015629827976226807
-0.0001620948314666748
-0.00016829371452331543
-0.00017486512660980225
-0.00018163025379180908
-0.00018841028213500977
-0.0001951754093170166
-0.0002017766237258911
-0.00020807981491088867
-0.00021409988403320312
-0.00021973252296447754
-0.000225067138671875
-0.0002301931381225586
-0.00023515522480010986
-0.00024008750915527344
-0.0002449899911880493
-0.0002499520778656006
-0.00025488436222076416
-0.00025963783264160156
-0.00026410818099975586
-0.0002681314945220947
-0.00027142465114593506
-0.0002737194299697876
-0.0002749711275100708
-0.0002750605344772339
-0.0002737492322921753
-0.0002712756395339966
-0.00026752054691314697
-0.0002624988555908203
-0.00025650858879089355
-0.00024956464767456055
-0.00024187564849853516
-0.0002336651086807251
-0.0002250373363494873
-0.00021620094776153564
-0.0002073049545288086
-0.00019848346710205078
-0.00018981099128723145
-0.00018146634101867676
-0.00017352402210235596
-0.00016610324382781982
-0.00015923380851745605
-0.00015297532081604004
-0.0001474618911743164
-0.0001427382230758667
-0.00013878941535949707
-0.00013574957847595215
-0.00013343989849090576
-0.0001320093870162964
-0.00013138353824615479
-0.00013148784637451172
-0.0001322031021118164
-0.00013349950313568115
-0.00013524293899536133
-0.00013741850852966309
-0.00013984739780426025
-0.00014247000217437744
-0.0001452118158340454
-0.00014796853065490723
-0.00015059113502502441
-0.00015319883823394775
-0.00015559792518615723
-0.00015769898891448975
-0.00015971064567565918
-0.0001614987850189209
-0.00016324222087860107
-0.00016495585441589355
-0.00016671419143676758
-0.00016868114471435547
-0.00017084181308746338
-0.00017340481281280518
-0.0001763850450515747
-0.00017981231212615967
-0.00018362700939178467
-0.0001878291368484497
-0.000192299485206604
-0.0001968294382095337
-0.00020132958889007568
-0.00020544230937957764
-0.0002091526985168457
-0.000212058424949646
-0.0002139955759048462
-0.0002149045467376709
-0.00021468102931976318
-7.537007331848145e-05
-8.153915405273438e-05
-8.744001388549805e-05
-9.313225746154785e-05
-9.854137897491455e-05
-0.00010353326797485352
-0.00010833144187927246
-0.00011278688907623291
-0.00011691451072692871
-0.00012095272541046143
-0.00012475252151489258
-0.00012862682342529297
-0.00013267993927001953
-0.00013689696788787842
-0.00014144182205200195
-0.00014637410640716553
-0.00015179812908172607
-0.00015766918659210205
-0.00016389787197113037
-0.00017051398754119873
-0.00017721951007843018
-0.0001840442419052124
-0.00019069015979766846
-0.0001971125602722168
-0.00020325183868408203
-0.00020894408226013184
-0.000214308500289917
-0.00021943449974060059
-0.00022417306900024414
-0.0002289414405822754
-0.0002336353063583374
-0.00023849308490753174
-0.00024344027042388916
-0.00024844706058502197
-0.0002534240484237671
-0.0002582073211669922
-0.00026254355907440186
-0.0002661794424057007
-0.00026889145374298096
-0.0002705901861190796
-0.0002709627151489258
-0.0002701282501220703
-0.00026789307594299316
-0.0002643465995788574
-0.00025953352451324463