# vtk DataFile Version 3.0
2D PINN Solution
ASCII
DATASET STRUCTURED_GRID
DIMENSIONS 100 100 1
POINTS 10000 float
-1.0 -1.0 0.0
-0.9797979797979798 -1.0 0.0
-0.9595959595959596 -1.0 0.0
-0.9393939393939394 -1.0 0.0
-0.9191919191919192 -1.0 0.0
-0.898989898989899 -1.0 0.0
-0.8787878787878788 -1.0 0.0
-0.8585858585858586 -1.0 0.0
-0.8383838383838383 -1.0 0.0
-0.8181818181818181 -1.0 0.0
-0.797979797979798 -1.0 0.0
-0.7777777777777778 -1.0 0.0
-0.7575757575757576 -1.0 0.0
-0.7373737373737373 -1.0 0.0
-0.7171717171717171 -1.0 0.0
-0.696969696969697 -1.0 0.0
-0.6767676767676767 -1.0 0.0
-0.6565656565656566 -1.0 0.0
-0.6363636363636364 -1.0 0.0
-0.6161616161616161 -1.0 0.0
-0.5959595959595959 -1.0 0.0
-0.5757575757575757 -1.0 0.0
-0.5555555555555556 -1.0 0.0
-0.5353535353535352 -1.0 0.0
-0.5151515151515151 -1.0 0.0
-0.4949494949494949 -1.0 0.0
-0.4747474747474747 -1.0 0.0
-0.4545454545454545 -1.0 0.0
-0.43434343434343425 -1.0 0.0
-0.41414141414141414 -1.0 0.0
-0.3939393939393939 -1.0 0.0
-0.3737373737373737 -1.0 0.0
-0.3535353535353535 -1.0 0.0
-0.33333333333333326 -1.0 0.0
-0.31313131313131304 -1.0 0.0
-0.2929292929292928 -1.0 0.0
-0.2727272727272727 -1.0 0.0
-0.2525252525252525 -1.0 0.0
-0.23232323232323226 -1.0 0.0
-0.21212121212121204 -1.0 0.0
-0.19191919191919182 -1.0 0.0
-0.1717171717171716 -1.0 0.0
-0.1515151515151515 -1.0 0.0
-0.13131313131313127 -1.0 0.0
-0.11111111111111105 -1.0 0.0
-0.09090909090909083 -1.0 0.0
-0.07070707070707061 -1.0 0.0
-0.050505050505050386 -1.0 0.0
-0.030303030303030276 -1.0 0.0
-0.010101010101010055 -1.0 0.0
0.010101010101010166 -1.0 0.0
0.030303030303030498 -1.0 0.0
0.05050505050505061 -1.0 0.0
0.07070707070707072 -1.0 0.0
0.09090909090909105 -1.0 0.0
0.11111111111111116 -1.0 0.0
0.1313131313131315 -1.0 0.0
0.1515151515151516 -1.0 0.0
0.1717171717171717 -1.0 0.0
0.19191919191919204 -1.0 0.0
0.21212121212121215 -1.0 0.0
0.2323232323232325 -1.0 0.0
0.2525252525252526 -1.0 0.0
0.27272727272727293 -1.0 0.0
0.29292929292929304 -1.0 0.0
0.31313131313131315 -1.0 0.0
0.3333333333333335 -1.0 0.0
0.3535353535353536 -1.0 0.0
0.3737373737373739 -1.0 0.0
0.39393939393939403 -1.0 0.0
0.41414141414141437 -1.0 0.0
0.4343434343434345 -1.0 0.0
0.4545454545454546 -1.0 0.0
0.4747474747474749 -1.0 0.0
0.49494949494949503 -1.0 0.0
0.5151515151515154 -1.0 0.0
0.5353535353535355 -1.0 0.0
0.5555555555555556 -1.0 0.0
0.5757575757575759 -1.0 0.0
0.595959595959596 -1.0 0.0
0.6161616161616164 -1.0 0.0
0.6363636363636365 -1.0 0.0
0.6565656565656568 -1.0 0.0
0.6767676767676769 -1.0 0.0
0.696969696969697 -1.0 0.0
0.7171717171717173 -1.0 0.0
0.7373737373737375 -1.0 0.0
0.7575757575757578 -1.0 0.0
0.7777777777777779 -1.0 0.0
0.7979797979797982 -1.0 0.0
0.8181818181818183 -1.0 0.0
0.8383838383838385 -1.0 0.0
0.8585858585858588 -1.0 0.0
0.8787878787878789 -1.0 0.0
0.8989898989898992 -1.0 0.0
0.9191919191919193 -1.0 0.0
0.9393939393939394 -1.0 0.0
0.9595959595959598 -1.0 0.0
0.9797979797979799 -1.0 0.0
1.0 -1.0 0.0
-1.0 -0.9797979797979798 0.0
-0.9797979797979798 -0.9797979797979798 0.0
-0.9595959595959596 -0.9797979797979798 0.0
-0.9393939393939394 -0.9797979797979798 0.0
-0.9191919191919192 -0.9797979797979798 0.0
-0.898989898989899 -0.9797979797979798 0.0
-0.8787878787878788 -0.9797979797979798 0.0
-0.8585858585858586 -0.9797979797979798 0.0
-0.8383838383838383 -0.9797979797979798 0.0
-0.8181818181818181 -0.9797979797979798 0.0
-0.797979797979798 -0.9797979797979798 0.0
-0.7777777777777778 -0.9797979797979798 0.0
-0.7575757575757576 -0.9797979797979798 0.0
-0.7373737373737373 -0.9797979797979798 0.0
-0.7171717171717171 -0.9797979797979798 0.0
-0.696969696969697 -0.9797979797979798 0.0
-0.6767676767676767 -0.9797979797979798 0.0
-0.6565656565656566 -0.9797979797979798 0.0
-0.6363636363636364 -0.9797979797979798 0.0
-0.6161616161616161 -0.9797979797979798 0.0
-0.5959595959595959 -0.9797979797979798 0.0
-0.5757575757575757 -0.9797979797979798 0.0
-0.5555555555555556 -0.9797979797979798 0.0
-0.5353535353535352 -0.9797979797979798 0.0
-0.5151515151515151 -0.9797979797979798 0.0
-0.4949494949494949 -0.9797979797979798 0.0
-0.4747474747474747 -0.9797979797979798 0.0
-0.4545454545454545 -0.9797979797979798 0.0
-0.43434343434343425 -0.9797979797979798 0.0
-0.41414141414141414 -0.9797979797979798 0.0
-0.3939393939393939 -0.9797979797979798 0.0
-0.3737373737373737 -0.9797979797979798 0.0
-0.3535353535353535 -0.9797979797979798 0.0
-0.33333333333333326 -0.9797979797979798 0.0
-0.31313131313131304 -0.9797979797979798 0.0
-0.2929292929292928 -0.9797979797979798 0.0
-0.2727272727272727 -0.9797979797979798 0.0
-0.2525252525252525 -0.9797979797979798 0.0
-0.23232323232323226 -0.9797979797979798 0.0
-0.21212121212121204 -0.9797979797979798 0.0
-0.19191919191919182 -0.9797979797979798 0.0
-0.1717171717171716 -0.9797979797979798 0.0
-0.1515151515151515 -0.9797979797979798 0.0
-0.13131313131313127 -0.9797979797979798 0.0
-0.11111111111111105 -0.9797979797979798 0.0
-0.09090909090909083 -0.9797979797979798 0.0
-0.07070707070707061 -0.9797979797979798 0.0
-0.050505050505050386 -0.9797979797979798 0.0
-0.030303030303030276 -0.9797979797979798 0.0
-0.010101010101010055 -0.9797979797979798 0.0
0.010101010101010166 -0.9797979797979798 0.0
0.030303030303030498 -0.9797979797979798 0.0
0.05050505050505061 -0.9797979797979798 0.0
0.07070707070707072 -0.9797979797979798 0.0
0.09090909090909105 -0.9797979797979798 0.0
0.11111111111111116 -0.9797979797979798 0.0
0.1313131313131315 -0.9797979797979798 0.0
0.1515151515151516 -0.9797979797979798 0.0
0.1717171717171717 -0.9797979797979798 0.0
0.19191919191919204 -0.9797979797979798 0.0
0.21212121212121215 -0.9797979797979798 0.0
0.2323232323232325 -0.9797979797979798 0.0
0.2525252525252526 -0.9797979797979798 0.0
0.27272727272727293 -0.9797979797979798 0.0
0.29292929292929304 -0.9797979797979798 0.0
0.31313131313131315 -0.9797979797979798 0.0
0.3333333333333335 -0.9797979797979798 0.0
0.3535353535353536 -0.9797979797979798 0.0
0.3737373737373739 -0.9797979797979798 0.0
0.39393939393939403 -0.9797979797979798 0.0
0.41414141414141437 -0.9797979797979798 0.0
0.4343434343434345 -0.9797979797979798 0.0
0.4545454545454546 -0.9797979797979798 0.0
0.4747474747474749 -0.9797979797979798 0.0
0.49494949494949503 -0.9797979797979798 0.0
0.5151515151515154 -0.9797979797979798 0.0
0.5353535353535355 -0.9797979797979798 0.0
0.5555555555555556 -0.9797979797979798 0.0
0.5757575757575759 -0.9797979797979798 0.0
0.595959595959596 -0.9797979797979798 0.0
0.6161616161616164 -0.9797979797979798 0.0
0.6363636363636365 -0.9797979797979798 0.0
0.6565656565656568 -0.9797979797979798 0.0
0.6767676767676769 -0.9797979797979798 0.0
0.696969696969697 -0.9797979797979798 0.0
0.7171717171717173 -0.9797979797979798 0.0
0.7373737373737375 -0.9797979797979798 0.0
0.7575757575757578 -0.9797979797979798 0.0
0.7777777777777779 -0.9797979797979798 0.0
0.7979797979797982 -0.9797979797979798 0.0
0.8181818181818183 -0.9797979797979798 0.0
0.8383838383838385 -0.9797979797979798 0.0
0.8585858585858588 -0.9797979797979798 0.0
0.8787878787878789 -0.9797979797979798 0.0
0.8989898989898992 -0.9797979797979798 0.0
0.9191919191919193 -0.9797979797979798 0.0
0.9393939393939394 -0.9797979797979798 0.0
0.9595959595959598 -0.9797979797979798 0.0
0.9797979797979799 -0.9797979797979798 0.0
1.0 -0.9797979797979798 0.0
-1.0 -0.9595959595959596 0.0
-0.9797979797979798 -0.9595959595959596 0.0
-0.9595959595959596 -0.9595959595959596 0.0
-0.9393939393939394 -0.9595959595959596 0.0
-0.9191919191919192 -0.9595959595959596 0.0
-0.898989898989899 -0.9595959595959596 0.0
-0.8787878787878788 -0.9595959595959596 0.0
-0.8585858585858586 -0.9595959595959596 0.0
-0.8383838383838383 -0.9595959595959596 0.0
-0.8181818181818181 -0.9595959595959596 0.0
-0.797979797979798 -0.9595959595959596 0.0
-0.7777777777777778 -0.9595959595959596 0.0
-0.7575757575757576 -0.9595959595959596 0.0
-0.7373737373737373 -0.9595959595959596 0.0
-0.7171717171717171 -0.9595959595959596 0.0
-0.696969696969697 -0.9595959595959596 0.0
-0.6767676767676767 -0.9595959595959596 0.0
-0.6565656565656566 -0.9595959595959596 0.0
-0.6363636363636364 -0.9595959595959596 0.0
-0.6161616161616161 -0.9595959595959596 0.0
-0.5959595959595959 -0.9595959595959596 0.0
-0.5757575757575757 -0.9595959595959596 0.0
-0.5555555555555556 -0.9595959595959596 0.0
-0.5353535353535352 -0.9595959595959596 0.0
-0.5151515151515151 -0.9595959595959596 0.0
-0.4949494949494949 -0.9595959595959596 0.0
-0.4747474747474747 -0.9595959595959596 0.0
-0.4545454545454545 -0.9595959595959596 0.0
-0.43434343434343425 -0.9595959595959596 0.0
-0.41414141414141414 -0.9595959595959596 0.0
-0.3939393939393939 -0.9595959595959596 0.0
-0.3737373737373737 -0.9595959595959596 0.0
-0.3535353535353535 -0.9595959595959596 0.0
-0.33333333333333326 -0.9595959595959596 0.0
-0.31313131313131304 -0.9595959595959596 0.0
-0.2929292929292928 -0.9595959595959596 0.0
-0.2727272727272727 -0.9595959595959596 0.0
-0.2525252525252525 -0.9595959595959596 0.0
-0.23232323232323226 -0.9595959595959596 0.0
-0.21212121212121204 -0.9595959595959596 0.0
-0.19191919191919182 -0.9595959595959596 0.0
-0.1717171717171716 -0.9595959595959596 0.0
-0.1515151515151515 -0.9595959595959596 0.0
-0.13131313131313127 -0.9595959595959596 0.0
-0.11111111111111105 -0.9595959595959596 0.0
-0.09090909090909083 -0.9595959595959596 0.0
-0.07070707070707061 -0.9595959595959596 0.0
-0.050505050505050386 -0.9595959595959596 0.0
-0.030303030303030276 -0.9595959595959596 0.0
-0.010101010101010055 -0.9595959595959596 0.0
0.010101010101010166 -0.9595959595959596 0.0
0.030303030303030498 -0.9595959595959596 0.0
0.05050505050505061 -0.9595959595959596 0.0
0.07070707070707072 -0.9595959595959596 0.0
0.09090909090909105 -0.9595959595959596 0.0
0.11111111111111116 -0.9595959595959596 0.0
0.1313131313131315 -0.9595959595959596 0.0
0.1515151515151516 -0.9595959595959596 0.0
0.1717171717171717 -0.9595959595959596 0.0
0.19191919191919204 -0.9595959595959596 0.0
0.21212121212121215 -0.9595959595959596 0.0
[...]
POINT_DATA 10000
SCALARS u float 1
LOOKUP_TABLE default
-7.832050323486328e-05
-9.648501873016357e-05
-0.00011309981346130371
-0.00012797117233276367
-0.00014138221740722656
-0.00015363097190856934
-0.0001650303602218628
-0.00017592310905456543
-0.0001868903636932373
-0.00019785761833190918
-0.00020910799503326416
-0.00022047758102416992
-0.000231817364692688
-0.00024290382862091064
-0.0002533644437789917
-0.00026288628578186035
-0.00027117133140563965
-0.0002780109643936157
-0.00028312206268310547
-0.0002864748239517212
-0.00028793513774871826
-0.00028756260871887207
-0.0002853274345397949
-0.0002815425395965576
-0.00027626752853393555
-0.00026983022689819336
-0.00026251375675201416
-0.0002545565366744995
-0.00024637579917907715
-0.00023818016052246094
-0.00023026764392852783
-0.000222817063331604
-0.000215873122215271
-0.0002095252275466919
-0.00020363926887512207
-0.00019812583923339844
-0.0001929551362991333
-0.0001878589391708374
-0.00018267333507537842
-0.0001773238182067871
-0.00017170608043670654
-0.000165596604347229
-0.00015904009342193604
-0.00015181303024291992
-0.0001440197229385376
-0.00013561546802520752
-0.00012674927711486816
-0.00011740624904632568
-0.00010792911052703857
-9.837746620178223e-05
-8.907914161682129e-05
-8.012354373931885e-05
-7.180869579315186e-05
-6.434321403503418e-05
-5.7697296142578125e-05
-5.1975250244140625e-05
-4.7147274017333984e-05
-4.322826862335205e-05
-4.000961780548096e-05
-3.7476420402526855e-05
-3.552436828613281e-05
-3.388524055480957e-05
-3.260374069213867e-05
-3.1441450119018555e-05
-3.0428171157836914e-05
-2.942979335784912e-05
-2.841651439666748e-05
-2.746284008026123e-05
-2.6345252990722656e-05
-2.5212764739990234e-05
-2.403557300567627e-05
-2.282857894897461e-05
-2.1502375602722168e-05
-2.016127109527588e-05
-1.874566078186035e-05
-1.7315149307250977e-05
-1.5854835510253906e-05
-1.4334917068481445e-05
-1.271069049835205e-05
-1.1116266250610352e-05
-9.447336196899414e-06
-7.733702659606934e-06
-5.930662155151367e-06
-4.172325134277344e-06
-2.3692846298217773e-06
-5.066394805908203e-07
1.3262033462524414e-06
3.203749656677246e-06
5.0067901611328125e-06
6.690621376037598e-06
8.255243301391602e-06
9.700655937194824e-06
1.0892748832702637e-05
1.189112663269043e-05
1.259148120880127e-05
1.2993812561035156e-05
1.2993812561035156e-05
1.2427568435668945e-05
1.1458992958068848e-05
1.0058283805847168e-05
-8.04215669631958e-05
-9.88692045211792e-05
-0.00011543929576873779
-0.00013028085231781006
-0.00014357268810272217
-0.00015573203563690186
-0.00016711652278900146
-0.0001782625913619995
-0.00018940865993499756
-0.00020091235637664795
-0.0002126544713973999
-0.00022464990615844727
-0.00023666024208068848
-0.00024831295013427734
-0.00025919079780578613
-0.0002689957618713379
-0.00027742981910705566
-0.00028415024280548096
-0.00028915703296661377
-0.00029224157333374023
-0.0002933889627456665
-0.0002927631139755249
-0.00029036402702331543
-0.00028637051582336426
-0.00028090178966522217
-0.0002742260694503784
-0.0002666562795639038
-0.00025838613510131836
-0.00024984776973724365
-0.00024127960205078125
-0.00023293495178222656
-0.0002250373363494873
-0.00021773576736450195
-0.0002110600471496582
-0.00020487606525421143
-0.00019912421703338623
-0.00019375979900360107
-0.00018849968910217285
-0.0001831650733947754
-0.0001776963472366333
-0.00017182528972625732
-0.00016555190086364746
-0.00015872716903686523
-0.00015121698379516602
-0.00014309585094451904
-0.0001344233751296997
-0.00012518465518951416
-0.00011549890041351318
-0.00010563433170318604
-9.572505950927734e-05
-8.597970008850098e-05
-7.674098014831543e-05
-6.808340549468994e-05
-6.031990051269531e-05
-5.340576171875e-05
-4.750490188598633e-05
-4.26173210144043e-05
-3.8623809814453125e-05
-3.542006015777588e-05
-3.294646739959717e-05
-3.1054019927978516e-05
-2.9653310775756836e-05
-2.849102020263672e-05
-2.7507543563842773e-05
-2.6732683181762695e-05
-2.5972723960876465e-05
-2.518296241760254e-05
-2.4378299713134766e-05
-2.3558735847473145e-05
-2.263486385345459e-05
-2.162158489227295e-05
-2.0563602447509766e-05
-1.9416213035583496e-05
-1.825392246246338e-05
-1.7002224922180176e-05
-1.5720725059509277e-05
-1.4290213584899902e-05
-1.2859702110290527e-05
-1.138448715209961e-05
-9.760260581970215e-06
-8.091330528259277e-06
-6.377696990966797e-06
-4.51505184173584e-06
-2.652406692504883e-06
-5.960464477539062e-07
1.4156103134155273e-06
3.546476364135742e-06
5.781650543212891e-06
7.927417755126953e-06
1.0102987289428711e-05
1.2248754501342773e-05
1.4215707778930664e-05
1.6137957572937012e-05
1.7821788787841797e-05
1.9297003746032715e-05
2.0518898963928223e-05
2.1472573280334473e-05
2.206861972808838e-05
2.2217631340026855e-05
2.187490463256836e-05
-8.633732795715332e-05
-0.00010463595390319824
-0.00012105703353881836
-0.00013554096221923828
-0.0001483708620071411
-0.00016005337238311768
-0.000170975923538208
-0.00018174946308135986
-0.00019265711307525635
-0.00020398199558258057
-0.00021579861640930176
-0.00022789835929870605
-0.00024005770683288574
-0.00025178492069244385
-0.00026282668113708496
-0.0002726316452026367
-0.00028099119663238525
-0.0002876967191696167
-0.00029255449771881104
-0.0002955198287963867
-0.00029662251472473145
-0.000295981764793396
-0.0002935677766799927
-0.00028958916664123535
-0.0002842247486114502
-0.00027754902839660645
-0.00026994943618774414
-0.0002615898847579956
-0.0002528876066207886
-0.00024405121803283691
-0.00023540854454040527
-0.00022721290588378906
-0.00021955370903015137
-0.00021250545978546143
-0.00020606815814971924
-0.00020015239715576172
-0.00019459426403045654
-0.00018918514251708984
-0.0001837313175201416
-0.0001780986785888672
-0.00017213821411132812
-0.0001656562089920044
-0.0001586228609085083
-0.00015087425708770752
-0.00014252960681915283
-0.00013352930545806885
-0.00012393295764923096
-0.00011385977268218994
-0.00010360777378082275
-9.332597255706787e-05
-8.316338062286377e-05
-7.359683513641357e-05
-6.465613842010498e-05
-5.65648078918457e-05
-4.939734935760498e-05
-4.3332576751708984e-05
-3.832578659057617e-05
-3.4302473068237305e-05
-3.1113624572753906e-05
-2.874433994293213e-05
-2.7000904083251953e-05
-2.5704503059387207e-05
-2.47955322265625e-05
-2.4050474166870117e-05
-2.345442771911621e-05
-2.288818359375e-05
-2.2411346435546875e-05
-2.1785497665405273e-05
-2.110004425048828e-05
-2.041459083557129e-05
-1.9595026969909668e-05
-1.870095729827881e-05
-1.773238182067871e-05
-1.6674399375915527e-05
-1.558661460876465e-05
-1.4394521713256836e-05
-1.3172626495361328e-05
-1.1831521987915039e-05
-1.0401010513305664e-05
-8.851289749145508e-06
-7.241964340209961e-06
-5.4836273193359375e-06
-3.6209821701049805e-06
-1.6242265701293945e-06
5.364418029785156e-07
2.771615982055664e-06
5.066394805908203e-06
7.465481758117676e-06
9.98377799987793e-06
1.2531876564025879e-05
1.500546932220459e-05
1.749396324157715e-05
1.9982457160949707e-05
2.224743366241455e-05
2.446770668029785e-05
2.6434659957885742e-05
2.8192996978759766e-05
2.969801425933838e-05
3.081560134887695e-05
3.1575560569763184e-05
-9.480118751525879e-05
-0.00011286139488220215
-0.00012880563735961914
-0.000142708420753479
-0.0001548975706100464
-0.00016584992408752441
-0.00017611682415008545
-0.00018607079982757568
-0.00019635260105133057
-0.00020708143711090088
-0.00021842122077941895
-0.0002301633358001709
-0.0002419799566268921
-0.00025363266468048096
-0.00026448071002960205
-0.0002741962671279907
-0.0002824068069458008
-0.000289037823677063
-0.00029380619525909424
-0.0002967417240142822
-0.0002979189157485962
-0.0002973228693008423
-0.000295102596282959
-0.00029137730598449707
-0.00028623640537261963
-0.00027982890605926514
-0.00027239322662353516
-0.0002641528844833374
-0.0002554357051849365
-0.0002465099096298218
-0.00023764371871948242
-0.0002292245626449585
-0.0002213120460510254
-0.00021401047706604004
-0.00020740926265716553
-0.00020128488540649414
-0.0001955479383468628
-0.0001900196075439453
-0.00018449127674102783
-0.0001787245273590088
-0.0001726597547531128
-0.00016607344150543213
-0.00015878677368164062
-0.00015087425708770752
-0.00014223158359527588
-0.0001328885555267334
-0.000122949481010437
-0.00011260807514190674
-0.00010192394256591797
-9.122490882873535e-05
-8.074939250946045e-05
-7.078051567077637e-05
-6.146728992462158e-05
-5.310773849487305e-05
-4.5746564865112305e-05
-3.947317600250244e-05
-3.4362077713012695e-05
-3.0279159545898438e-05
-2.7194619178771973e-05
-2.491474151611328e-05
-2.3305416107177734e-05
-2.2202730178833008e-05
-2.1412968635559082e-05
-2.0951032638549805e-05
-2.060830593109131e-05
-2.0325183868408203e-05
-1.9982457160949707e-05
-1.963973045349121e-05
-1.9177794456481934e-05
-1.8596649169921875e-05
-1.7940998077392578e-05
-1.7181038856506348e-05
-1.6376376152038574e-05
-1.5497207641601562e-05
-1.4528632164001465e-05
-1.3470649719238281e-05
-1.233816146850586e-05
-1.1071562767028809e-05
-9.79006290435791e-06
-8.255243301391602e-06
-6.720423698425293e-06
-4.976987838745117e-06
-3.0547380447387695e-06
-1.0132789611816406e-06
1.1324882507324219e-06
3.4421682357788086e-06
5.990266799926758e-06
8.52346420288086e-06
1.1265277862548828e-05
1.4021992683410645e-05
1.6897916793823242e-05
1.977384090423584e-05
2.2649765014648438e-05
2.54213809967041e-05
2.816319465637207e-05
3.0800700187683105e-05
3.3214688301086426e-05
3.546476364135742e-05
3.74913215637207e-05
3.9204955101013184e-05
-0.00010497868061065674
-0.00012253224849700928
-0.0001379251480102539
-0.00015106797218322754
-0.00016248226165771484
-0.00017252564430236816
-0.0001818537712097168
-0.00019088387489318848
-0.00020022690296173096
-0.00021003186702728271
-0.000220566987991333
-0.00023159384727478027
-0.00024284422397613525
-0.00025397539138793945
-0.00026448071002960205
-0.00027392804622650146
-0.00028198957443237305
-0.0002884417772293091
-0.00029318034648895264
-0.0002962350845336914
-0.0002975165843963623
-0.0002971738576889038
-0.000295296311378479
-0.00029195845127105713
-0.00028717517852783203
-0.00028111040592193604
-0.0002740323543548584
-0.00026604533195495605
-0.00025741755962371826
-0.000248640775680542
-0.00023971498012542725
-0.0002311617136001587
-0.00022307038307189941
-0.00021563470363616943
-0.0002087801694869995
-0.00020253658294677734
-0.00019666552543640137
-0.00019109249114990234
-0.00018540024757385254
-0.00017955899238586426
-0.00017338991165161133
-0.0001666545867919922
-0.00015923380851745605
-0.00015114247798919678
-0.00014229118824005127
-0.000132635235786438
-0.00012242794036865234
-0.00011168420314788818
-0.00010064244270324707
-8.958578109741211e-05
-7.872283458709717e-05
-6.836652755737305e-05
-5.869567394256592e-05
-5.002319812774658e-05
-4.240870475769043e-05
-3.600120544433594e-05
-3.081560134887695e-05
-2.6732683181762695e-05
-2.364814281463623e-05
-2.148747444152832e-05
-2.0012259483337402e-05
-1.9118189811706543e-05
-1.8641352653503418e-05
-1.8402934074401855e-05
-1.8268823623657227e-05
-1.8149614334106445e-05
-1.8045306205749512e-05
-1.786649227142334e-05
-1.7568469047546387e-05
-1.71661376953125e-05
-1.6734004020690918e-05
-1.609325408935547e-05
-1.5363097190856934e-05
-1.461803913116455e-05
-1.3768672943115234e-05
-1.2814998626708984e-05
-1.1727213859558105e-05
-1.055002212524414e-05
-9.34302806854248e-06
-7.927417755126953e-06
-6.377696990966797e-06
-4.723668098449707e-06
-2.8014183044433594e-06
-8.046627044677734e-07
1.475214958190918e-06
3.859400749206543e-06
6.3925981521606445e-06
9.08970832824707e-06
1.1995434761047363e-05
1.4975666999816895e-05
1.8030405044555664e-05
2.1144747734069824e-05
2.440810203552246e-05
2.752244472503662e-05
3.072619438171387e-05
3.3855438232421875e-05
3.682076930999756e-05
3.968179225921631e-05
4.234910011291504e-05
4.48077917098999e-05
-0.00011596083641052246
-0.00013296306133270264
-0.00014765560626983643
-0.00016005337238311768
-0.00017055869102478027
-0.0001796633005142212
-0.00018796324729919434
-0.00019596517086029053
-0.0002041459083557129
-0.00021286308765411377
-0.0002222806215286255
-0.0002323240041732788
-0.00024278461933135986
-0.0002532005310058594
-0.00026310980319976807
-0.00027222931385040283
-0.00028008222579956055
-0.0002864152193069458
-0.00029118359088897705
-0.0002942979335784912
-0.00029584765434265137
-0.0002958029508590698
-0.0002942979335784912
-0.00029143691062927246
-0.00028708577156066895
-0.00028161704540252686
-0.00027492642402648926
-0.00026735663414001465
-0.00025901198387145996
-0.0002503246068954468
-0.00024156272411346436
-0.00023293495178222656
-0.00022482872009277344
-0.00021725893020629883
-0.00021025538444519043
-0.00020389258861541748
-0.0001979917287826538
-0.0001922696828842163
-0.0001865774393081665
-0.00018066167831420898
-0.00017437338829040527
-0.0001675337553024292
-0.00016005337238311768
-0.00015175342559814453
-0.00014261901378631592
-0.00013276934623718262
-0.00012226402759552002
-0.00011120736598968506
-9.98377799987793e-05
-8.83340835571289e-05
-7.714331150054932e-05
-6.638467311859131e-05
-5.634129047393799e-05
-4.743039608001709e-05
-3.954768180847168e-05
-3.299117088317871e-05
-2.7671456336975098e-05
-2.3573637008666992e-05
-2.0518898963928223e-05
-1.8537044525146484e-05
-1.722574234008789e-05
-1.658499240875244e-05
-1.6316771507263184e-05
-1.627206802368164e-05
-1.6391277313232422e-05
-1.6510486602783203e-05
-1.6570091247558594e-05
-1.6570091247558594e-05
-1.6421079635620117e-05
-1.6167759895324707e-05
-1.5735626220703125e-05
-1.5273690223693848e-05
-1.4677643775939941e-05
-1.4007091522216797e-05
-1.3217329978942871e-05
-1.233816146850586e-05
-1.1354684829711914e-05
-1.0311603546142578e-05
-9.074807167053223e-06
-7.718801498413086e-06
-6.22868537902832e-06
-4.5746564865112305e-06
-2.8014183044433594e-06
-7.003545761108398e-07
1.5348196029663086e-06
3.948807716369629e-06
6.616115570068359e-06
9.387731552124023e-06
1.2367963790893555e-05
1.5422701835632324e-05
1.8656253814697266e-05
2.2009015083312988e-05
2.54213809967041e-05
2.8893351554870605e-05
3.235042095184326e-05
3.579258918762207e-05
3.914535045623779e-05
4.245340824127197e-05
4.5686960220336914e-05
4.8667192459106445e-05
-0.00012734532356262207
-0.00014355778694152832
-0.00015750527381896973
-0.00016900897026062012
-0.00017870962619781494
-0.00018678605556488037
-0.00019410252571105957
-0.0002008974552154541
-0.00020788609981536865
-0.00021533668041229248
-0.00022362172603607178
-0.00023248791694641113
-0.0002419501543045044
-0.0002515166997909546
-0.00026085972785949707
-0.0002694129943847656
-0.00027698278427124023
-0.0002832561731338501
-0.0002880692481994629
-0.0002913177013397217
-0.0002931654453277588
-0.00029346346855163574
-0.0002924501895904541
-0.0002900063991546631
-0.00028631091117858887
-0.0002813488245010376
-0.0002752244472503662
-0.0002680569887161255
-0.0002602040767669678
-0.0002517402172088623
-0.00024315714836120605
-0.00023461878299713135
-0.00022648274898529053
-0.00021891295909881592
-0.00021187961101531982
-0.00020535290241241455
-0.00019945204257965088
-0.00019362568855285645
-0.0001879483461380005
-0.00018195807933807373
-0.00017569959163665771
-0.00016877055168151855
-0.0001611560583114624
-0.00015273690223693848
-0.0001434236764907837
-0.00013339519500732422
-0.00012256205081939697
-0.0001112222671508789
-9.948015213012695e-05
-8.760392665863037e-05
-7.60108232498169e-05
-6.48796558380127e-05
-5.455315113067627e-05
-4.528462886810303e-05
-3.71783971786499e-05
-3.0472874641418457e-05
-2.5004148483276367e-05
-2.0891427993774414e-05
-1.8015503883361816e-05
-1.609325408935547e-05
-1.5050172805786133e-05
-1.4588236808776855e-05
-1.4543533325195312e-05
-1.4781951904296875e-05
-1.5109777450561523e-05
-1.5407800674438477e-05
-1.564621925354004e-05
-1.5810132026672363e-05
-1.5720725059509277e-05
-1.5556812286376953e-05
-1.5243887901306152e-05
-1.4796853065490723e-05
-1.4334917068481445e-05
-1.3634562492370605e-05
-1.2919306755065918e-05
-1.2114644050598145e-05
-1.1160969734191895e-05
-1.0117888450622559e-05
-8.955597877502441e-06
-7.614493370056152e-06
-6.139278411865234e-06
-4.5299530029296875e-06
-2.7120113372802734e-06
-6.258487701416016e-07
1.6242265701293945e-06
4.0531158447265625e-06
6.690621376037598e-06
9.47713851928711e-06
1.2516975402832031e-05
1.570582389831543e-05
1.901388168334961e-05
2.2456049919128418e-05
2.594292163848877e-05
2.9608607292175293e-05
3.325939178466797e-05
3.692507743835449e-05
4.057586193084717e-05
4.4152140617370605e-05
4.772841930389404e-05
5.1140785217285156e-05
-0.00013865530490875244
-0.00015401840209960938
-0.00016710162162780762
-0.00017781555652618408
-0.0001866072416305542
-0.00019381940364837646
-0.0002000182867050171
-0.00020578503608703613
-0.00021155178546905518
-0.0002177208662033081
-0.00022460520267486572
-0.0002323240041732788
-0.00024059414863586426
-0.0002492666244506836
-0.0002577453851699829
-0.00026585161685943604
-0.00027307868003845215
-0.0002792477607727051
-0.0002840310335159302
-0.0002875328063964844
-0.0002896338701248169
-0.00029040873050689697
-0.0002898573875427246
-0.0002879798412322998
-0.0002848505973815918
-0.0002804696559906006
-0.00027495622634887695
-0.0002683401107788086
-0.00026088953018188477
-0.0002528727054595947
-0.00024455785751342773
-0.0002361685037612915
-0.0002281665802001953
-0.00022058188915252686
-0.0002135634422302246
-0.00020711123943328857
-0.00020109117031097412
-0.0001952648162841797
-0.00018957257270812988
-0.00018361210823059082
-0.00017727911472320557
-0.00017033517360687256
-0.00016261637210845947
-0.00015410780906677246
-0.00014466047286987305
-0.00013443827629089355
-0.00012333691120147705
-0.00011166930198669434
-9.961426258087158e-05
-8.746981620788574e-05
-7.545948028564453e-05
-6.395578384399414e-05
-5.327165126800537e-05
-4.3705105781555176e-05
-3.5375356674194336e-05
-2.8431415557861328e-05
-2.300739288330078e-05
-1.8849968910217285e-05
-1.6063451766967773e-05
-1.4290213584899902e-05
-1.3381242752075195e-05
-1.315772533416748e-05
-1.3381242752075195e-05
-1.3828277587890625e-05
-1.430511474609375e-05
-1.4856457710266113e-05
-1.5273690223693848e-05
-1.545250415802002e-05
-1.545250415802002e-05
-1.539289951324463e-05
-1.5079975128173828e-05
-1.4707446098327637e-05
-1.4156103134155273e-05
-1.3515353202819824e-05
-1.2740492820739746e-05
-1.1965632438659668e-05
-1.1071562767028809e-05
-1.0073184967041016e-05
-8.851289749145508e-06
-7.584691047668457e-06
-6.124377250671387e-06
-4.4405460357666016e-06
-2.562999725341797e-06
-5.513429641723633e-07
1.7136335372924805e-06
4.157423973083496e-06
6.8247318267822266e-06
9.626150131225586e-06
1.2636184692382812e-05
1.58846378326416e-05
1.9237399101257324e-05
2.2679567337036133e-05
2.6270747184753418e-05
2.993643283843994e-05
3.369152545928955e-05
3.74913215637207e-05
4.124641418457031e-05
4.507601261138916e-05
4.881620407104492e-05
5.249679088592529e-05
-0.000149458646774292
-0.000164031982421875
-0.0001761913299560547
-0.00018613040447235107
-0.00019402801990509033
-0.00020040571689605713
-0.00020566582679748535
-0.00021035969257354736
-0.00021488964557647705
-0.00021988153457641602
-0.00022545456886291504
-0.00023187696933746338
-0.0002390146255493164
-0.000246584415435791
-0.0002543032169342041
-0.0002617835998535156
-0.0002686530351638794
-0.000274658203125
-0.00027951598167419434
-0.00028318166732788086
-0.0002856701612472534
-0.000286787748336792
-0.0002868175506591797
-0.0002854764461517334
-0.0002829134464263916
-0.0002791881561279297
-0.0002742558717727661
-0.00026823580265045166
-0.0002612471580505371
-0.0002536475658416748
-0.00024569034576416016
-0.00023762881755828857
-0.00022973120212554932
-0.0002222508192062378
-0.00021532177925109863
-0.0002088397741317749
-0.0002028942108154297
-0.0001970827579498291
-0.0001913607120513916
-0.0001854151487350464
-0.00017914175987243652
-0.00017215311527252197
-0.00016444921493530273
-0.0001558363437652588
-0.0001462996006011963
-0.00013594329357147217
-0.00012464821338653564
-0.00011272728443145752
-0.00010037422180175781
-8.785724639892578e-05
-7.553398609161377e-05
-6.364285945892334e-05
-5.2616000175476074e-05
-4.273653030395508e-05