# vtk DataFile Version 3.0
2D PINN Solution
ASCII
DATASET STRUCTURED_GRID
DIMENSIONS 100 100 1
POINTS 10000 float
-1.0 -1.0 0.0
-0.9797979797979798 -1.0 0.0
-0.9595959595959596 -1.0 0.0
-0.9393939393939394 -1.0 0.0
-0.9191919191919192 -1.0 0.0
-0.898989898989899 -1.0 0.0
-0.8787878787878788 -1.0 0.0
-0.8585858585858586 -1.0 0.0
-0.8383838383838383 -1.0 0.0
-0.8181818181818181 -1.0 0.0
-0.797979797979798 -1.0 0.0
-0.7777777777777778 -1.0 0.0
-0.7575757575757576 -1.0 0.0
-0.7373737373737373 -1.0 0.0
-0.7171717171717171 -1.0 0.0
-0.696969696969697 -1.0 0.0
-0.6767676767676767 -1.0 0.0
-0.6565656565656566 -1.0 0.0
-0.6363636363636364 -1.0 0.0
-0.6161616161616161 -1.0 0.0
-0.5959595959595959 -1.0 0.0
-0.5757575757575757 -1.0 0.0
-0.5555555555555556 -1.0 0.0
-0.5353535353535352 -1.0 0.0
-0.5151515151515151 -1.0 0.0
-0.4949494949494949 -1.0 0.0
-0.4747474747474747 -1.0 0.0
-0.4545454545454545 -1.0 0.0
-0.43434343434343425 -1.0 0.0
-0.41414141414141414 -1.0 0.0
-0.3939393939393939 -1.0 0.0
-0.3737373737373737 -1.0 0.0
-0.3535353535353535 -1.0 0.0
-0.33333333333333326 -1.0 0.0
-0.31313131313131304 -1.0 0.0
-0.2929292929292928 -1.0 0.0
-0.2727272727272727 -1.0 0.0
-0.2525252525252525 -1.0 0.0
-0.23232323232323226 -1.0 0.0
-0.21212121212121204 -1.0 0.0
-0.19191919191919182 -1.0 0.0
-0.1717171717171716 -1.0 0.0
-0.1515151515151515 -1.0 0.0
-0.13131313131313127 -1.0 0.0
-0.11111111111111105 -1.0 0.0
-0.09090909090909083 -1.0 0.0
-0.07070707070707061 -1.0 0.0
-0.050505050505050386 -1.0 0.0
-0.030303030303030276 -1.0 0.0
-0.010101010101010055 -1.0 0.0
0.010101010101010166 -1.0 0.0
0.030303030303030498 -1.0 0.0
0.05050505050505061 -1.0 0.0
0.07070707070707072 -1.0 0.0
0.09090909090909105 -1.0 0.0
0.11111111111111116 -1.0 0.0
0.1313131313131315 -1.0 0.0
0.1515151515151516 -1.0 0.0
0.1717171717171717 -1.0 0.0
0.19191919191919204 -1.0 0.0
0.21212121212121215 -1.0 0.0
0.2323232323232325 -1.0 0.0
0.2525252525252526 -1.0 0.0
0.27272727272727293 -1.0 0.0
0.29292929292929304 -1.0 0.0
0.31313131313131315 -1.0 0.0
0.3333333333333335 -1.0 0.0
0.3535353535353536 -1.0 0.0
0.3737373737373739 -1.0 0.0
0.39393939393939403 -1.0 0.0
0.41414141414141437 -1.0 0.0
0.4343434343434345 -1.0 0.0
0.4545454545454546 -1.0 0.0
0.4747474747474749 -1.0 0.0
0.49494949494949503 -1.0 0.0
0.5151515151515154 -1.0 0.0
0.5353535353535355 -1.0 0.0
0.5555555555555556 -1.0 0.0
0.5757575757575759 -1.0 0.0
0.595959595959596 -1.0 0.0
0.6161616161616164 -1.0 0.0
0.6363636363636365 -1.0 0.0
0.6565656565656568 -1.0 0.0
0.6767676767676769 -1.0 0.0
0.696969696969697 -1.0 0.0
0.7171717171717173 -1.0 0.0
0.7373737373737375 -1.0 0.0
0.7575757575757578 -1.0 0.0
0.7777777777777779 -1.0 0.0
0.7979797979797982 -1.0 0.0
0.8181818181818183 -1.0 0.0
0.8383838383838385 -1.0 0.0
0.8585858585858588 -1.0 0.0
0.8787878787878789 -1.0 0.0
0.8989898989898992 -1.0 0.0
0.9191919191919193 -1.0 0.0
0.9393939393939394 -1.0 0.0
0.9595959595959598 -1.0 0.0
0.9797979797979799 -1.0 0.0
1.0 -1.0 0.0
-1.0 -0.9797979797979798 0.0
-0.9797979797979798 -0.9797979797979798 0.0
-0.9595959595959596 -0.9797979797979798 0.0
-0.9393939393939394 -0.9797979797979798 0.0
-0.9191919191919192 -0.9797979797979798 0.0
-0.898989898989899 -0.9797979797979798 0.0
-0.8787878787878788 -0.9797979797979798 0.0
-0.8585858585858586 -0.9797979797979798 0.0
-0.8383838383838383 -0.9797979797979798 0.0
-0.8181818181818181 -0.9797979797979798 0.0
-0.797979797979798 -0.9797979797979798 0.0
-0.7777777777777778 -0.9797979797979798 0.0
-0.7575757575757576 -0.9797979797979798 0.0
-0.7373737373737373 -0.9797979797979798 0.0
-0.7171717171717171 -0.9797979797979798 0.0
-0.696969696969697 -0.9797979797979798 0.0
-0.6767676767676767 -0.9797979797979798 0.0
-0.6565656565656566 -0.9797979797979798 0.0
-0.6363636363636364 -0.9797979797979798 0.0
-0.6161616161616161 -0.9797979797979798 0.0
-0.5959595959595959 -0.9797979797979798 0.0
-0.5757575757575757 -0.9797979797979798 0.0
-0.5555555555555556 -0.9797979797979798 0.0
-0.5353535353535352 -0.9797979797979798 0.0
-0.5151515151515151 -0.9797979797979798 0.0
-0.4949494949494949 -0.9797979797979798 0.0
-0.4747474747474747 -0.9797979797979798 0.0
-0.4545454545454545 -0.9797979797979798 0.0
-0.43434343434343425 -0.9797979797979798 0.0
-0.41414141414141414 -0.9797979797979798 0.0
-0.3939393939393939 -0.9797979797979798 0.0
-0.3737373737373737 -0.9797979797979798 0.0
-0.3535353535353535 -0.9797979797979798 0.0
-0.33333333333333326 -0.9797979797979798 0.0
-0.31313131313131304 -0.9797979797979798 0.0
-0.2929292929292928 -0.9797979797979798 0.0
-0.2727272727272727 -0.9797979797979798 0.0
-0.2525252525252525 -0.9797979797979798 0.0
-0.23232323232323226 -0.9797979797979798 0.0
-0.21212121212121204 -0.9797979797979798 0.0
-0.19191919191919182 -0.9797979797979798 0.0
-0.1717171717171716 -0.9797979797979798 0.0
-0.1515151515151515 -0.9797979797979798 0.0
-0.13131313131313127 -0.9797979797979798 0.0
-0.11111111111111105 -0.9797979797979798 0.0
-0.09090909090909083 -0.9797979797979798 0.0
-0.07070707070707061 -0.9797979797979798 0.0
-0.050505050505050386 -0.9797979797979798 0.0
-0.030303030303030276 -0.9797979797979798 0.0
-0.010101010101010055 -0.9797979797979798 0.0
0.010101010101010166 -0.9797979797979798 0.0
0.030303030303030498 -0.9797979797979798 0.0
0.05050505050505061 -0.9797979797979798 0.0
0.07070707070707072 -0.9797979797979798 0.0
0.09090909090909105 -0.9797979797979798 0.0
0.11111111111111116 -0.9797979797979798 0.0
0.1313131313131315 -0.9797979797979798 0.0
0.1515151515151516 -0.9797979797979798 0.0
0.1717171717171717 -0.9797979797979798 0.0
0.19191919191919204 -0.9797979797979798 0.0
0.21212121212121215 -0.9797979797979798 0.0
0.2323232323232325 -0.9797979797979798 0.0
0.2525252525252526 -0.9797979797979798 0.0
0.27272727272727293 -0.9797979797979798 0.0
0.29292929292929304 -0.9797979797979798 0.0
0.31313131313131315 -0.9797979797979798 0.0
0.3333333333333335 -0.9797979797979798 0.0
0.3535353535353536 -0.9797979797979798 0.0
0.3737373737373739 -0.9797979797979798 0.0
0.39393939393939403 -0.9797979797979798 0.0
0.41414141414141437 -0.9797979797979798 0.0
0.4343434343434345 -0.9797979797979798 0.0
0.4545454545454546 -0.9797979797979798 0.0
0.4747474747474749 -0.9797979797979798 0.0
0.49494949494949503 -0.9797979797979798 0.0
0.5151515151515154 -0.9797979797979798 0.0
0.5353535353535355 -0.9797979797979798 0.0
0.5555555555555556 -0.9797979797979798 0.0
0.5757575757575759 -0.9797979797979798 0.0
0.595959595959596 -0.9797979797979798 0.0
0.6161616161616164 -0.9797979797979798 0.0
0.6363636363636365 -0.9797979797979798 0.0
0.6565656565656568 -0.9797979797979798 0.0
0.6767676767676769 -0.9797979797979798 0.0
0.696969696969697 -0.9797979797979798 0.0
0.7171717171717173 -0.9797979797979798 0.0
0.7373737373737375 -0.9797979797979798 0.0
0.7575757575757578 -0.9797979797979798 0.0
0.7777777777777779 -0.9797979797979798 0.0
0.7979797979797982 -0.9797979797979798 0.0
0.8181818181818183 -0.9797979797979798 0.0
0.8383838383838385 -0.9797979797979798 0.0
0.8585858585858588 -0.9797979797979798 0.0
0.8787878787878789 -0.9797979797979798 0.0
0.8989898989898992 -0.9797979797979798 0.0
0.9191919191919193 -0.9797979797979798 0.0
0.9393939393939394 -0.9797979797979798 0.0
0.9595959595959598 -0.9797979797979798 0.0
0.9797979797979799 -0.9797979797979798 0.0
1.0 -0.9797979797979798 0.0
-1.0 -0.9595959595959596 0.0
-0.9797979797979798 -0.9595959595959596 0.0
-0.9595959595959596 -0.9595959595959596 0.0
-0.9393939393939394 -0.9595959595959596 0.0
-0.9191919191919192 -0.9595959595959596 0.0
-0.898989898989899 -0.9595959595959596 0.0
-0.8787878787878788 -0.9595959595959596 0.0
-0.8585858585858586 -0.9595959595959596 0.0
-0.8383838383838383 -0.9595959595959596 0.0
-0.8181818181818181 -0.9595959595959596 0.0
-0.797979797979798 -0.9595959595959596 0.0
-0.7777777777777778 -0.9595959595959596 0.0
-0.7575757575757576 -0.9595959595959596 0.0
-0.7373737373737373 -0.9595959595959596 0.0
-0.7171717171717171 -0.9595959595959596 0.0
-0.696969696969697 -0.9595959595959596 0.0
-0.6767676767676767 -0.9595959595959596 0.0
-0.6565656565656566 -0.9595959595959596 0.0
-0.6363636363636364 -0.9595959595959596 0.0
-0.6161616161616161 -0.9595959595959596 0.0
-0.5959595959595959 -0.9595959595959596 0.0
-0.5757575757575757 -0.9595959595959596 0.0
-0.5555555555555556 -0.9595959595959596 0.0
-0.5353535353535352 -0.9595959595959596 0.0
-0.5151515151515151 -0.9595959595959596 0.0
-0.4949494949494949 -0.9595959595959596 0.0
-0.4747474747474747 -0.9595959595959596 0.0
-0.4545454545454545 -0.9595959595959596 0.0
-0.43434343434343425 -0.9595959595959596 0.0
-0.41414141414141414 -0.9595959595959596 0.0
-0.3939393939393939 -0.9595959595959596 0.0
-0.3737373737373737 -0.9595959595959596 0.0
-0.3535353535353535 -0.9595959595959596 0.0
-0.33333333333333326 -0.9595959595959596 0.0
-0.31313131313131304 -0.9595959595959596 0.0
-0.2929292929292928 -0.9595959595959596 0.0
-0.2727272727272727 -0.9595959595959596 0.0
-0.2525252525252525 -0.9595959595959596 0.0
-0.23232323232323226 -0.9595959595959596 0.0
-0.21212121212121204 -0.9595959595959596 0.0
-0.19191919191919182 -0.9595959595959596 0.0
-0.1717171717171716 -0.9595959595959596 0.0
-0.1515151515151515 -0.9595959595959596 0.0
-0.13131313131313127 -0.9595959595959596 0.0
-0.11111111111111105 -0.9595959595959596 0.0
-0.09090909090909083 -0.9595959595959596 0.0
-0.07070707070707061 -0.9595959595959596 0.0
-0.050505050505050386 -0.9595959595959596 0.0
-0.030303030303030276 -0.9595959595959596 0.0
-0.010101010101010055 -0.9595959595959596 0.0
0.010101010101010166 -0.9595959595959596 0.0
0.030303030303030498 -0.9595959595959596 0.0
0.05050505050505061 -0.9595959595959596 0.0
0.07070707070707072 -0.9595959595959596 0.0
0.09090909090909105 -0.9595959595959596 0.0
0.11111111111111116 -0.9595959595959596 0.0
0.1313131313131315 -0.9595959595959596 0.0
0.1515151515151516 -0.9595959595959596 0.0
0.1717171717171717 -0.9595959595959596 0.0
0.19191919191919204 -0.9595959595959596 0.0
0.21212121212121215 -0.9595959595959596 0.0
[...]
POINT_DATA 10000
SCALARS u float 1
LOOKUP_TABLE default
0.6073315739631653
0.6687203049659729
0.7178267240524292
0.7535672783851624
0.7753896713256836
0.7832610011100769
0.7775921821594238
0.7591198086738586
0.7287934422492981
0.6876533031463623
0.636756956577301
0.5771195888519287
0.509692370891571
0.43536990880966187
0.35500645637512207
0.26944687962532043
0.17956718802452087
0.08631952852010727
-0.009221665561199188
-0.10579989105463028
-0.20194011926651
-0.2959299683570862
-0.3858592212200165
-0.46971574425697327
-0.5455366373062134
-0.6115757822990417
-0.6664501428604126
-0.7092303037643433
-0.7394542694091797
-0.7570742964744568
-0.7623615860939026
-0.7557874321937561
-0.7379149198532104
-0.7093130350112915
-0.6705009937286377
-0.6219375729560852
-0.5640469193458557
-0.4972809851169586
-0.42219969630241394
-0.3395532965660095
-0.2503432333469391
-0.1558520495891571
-0.05763948708772659
0.04250013083219528
0.14260756969451904
0.24064525961875916
0.33460304141044617
0.42260247468948364
0.502978503704071
0.5743424296379089
0.6355993151664734
0.6859340071678162
0.7247702479362488
0.7517271637916565
0.7665744423866272
0.76920485496521
0.7596263289451599
0.7379740476608276
0.7045381665229797
0.6597999930381775
0.6044676899909973
0.539502739906311
0.46610531210899353
0.38567325472831726
0.2997158467769623
0.2097601592540741
0.11726071685552597
0.023551739752292633
-0.07016576081514359
-0.1627955436706543
-0.25329750776290894
-0.3406287133693695
-0.42370209097862244
-0.5013535618782043
-0.5723373293876648
-0.6353453397750854
-0.6890504956245422
-0.7321687340736389
-0.7635321021080017
-0.7821760773658752
-0.7874065041542053
-0.7788702845573425
-0.756588876247406
-0.720979630947113
-0.6728330850601196
-0.6132785677909851
-0.5437078475952148
-0.46569254994392395
-0.38089123368263245
-0.29096075892448425
-0.19747957587242126
-0.10189349204301834
-0.005490042269229889
0.09061304479837418
0.1854531168937683
0.27820059657096863
0.3681394159793854
0.4546404182910919
0.537151038646698
0.6151846051216125
0.6673438549041748
0.7331268191337585
0.7852283120155334
0.8227814435958862
0.8454648852348328
0.8534473180770874
0.8472796082496643
0.8277727365493774
0.795868992805481
0.7525376677513123
0.698703944683075
0.6352134346961975
0.5628322958946228
0.48228415846824646
0.3943067789077759
0.2997224032878876
0.19952106475830078
0.09492465108633041
-0.012558139860630035
-0.12111777812242508
-0.2286684811115265
-0.3329339623451233
-0.43157920241355896
-0.5223738551139832
-0.6033666729927063
-0.673014760017395
-0.7302587628364563
-0.7745261788368225
-0.8056668639183044
-0.8238512873649597
-0.8294527530670166
-0.8229311108589172
-0.8047407269477844
-0.7752687931060791
-0.7348072528839111
-0.6835760474205017
-0.6217781901359558
-0.5496989488601685
-0.4678194224834442
-0.3769248425960541
-0.27818378806114197
-0.1731727421283722
-0.06384498625993729
0.04755543917417526
0.1586240530014038
0.2669435143470764
0.3702242970466614
0.4664272964000702
0.5538372993469238
0.631085216999054
0.6971343159675598
0.7512320876121521
0.7928566336631775
0.8216662406921387
0.8374623656272888
0.840169370174408
0.8298311233520508
0.8066091537475586
0.7708091735839844
0.7229010462760925
0.6635507345199585
0.593647837638855
0.514324963092804
0.42693984508514404
0.3330335319042206
0.23424795269966125
0.13223809003829956
0.02859068661928177
-0.0752163901925087
-0.17782151699066162
-0.2779456377029419
-0.3743477165699005
-0.46577778458595276
-0.5509465336799622
-0.628516674041748
-0.6971195340156555
-0.7553932070732117
-0.8020410537719727
-0.8358971476554871
-0.8559946417808533
-0.8616337180137634
-0.8524332642555237
-0.8283712863922119
-0.7898125648498535
-0.737505316734314
-0.672558605670929
-0.5963998436927795
-0.5107021927833557
-0.4172988831996918
-0.31808996200561523
-0.21495333313941956
-0.10966413468122482
-0.003842882812023163
0.1010783389210701
0.20386534929275513
0.30347299575805664
0.39902979135513306
0.4898141324520111
0.5752398371696472
0.6548405289649963
0.7155277132987976
0.7841928005218506
0.838249146938324
0.8770613670349121
0.9005045294761658
0.9088738560676575
0.9027756452560425
0.8830015063285828
0.8504130244255066
0.8058491349220276
0.750068724155426
0.6837268471717834
0.6074036359786987
0.5216654539108276
0.4271630346775055
0.3247390687465668
0.21554794907569885
0.10113679617643356
-0.01651719957590103
-0.13505083322525024
-0.25182726979255676
-0.36412301659584045
-0.4693393409252167
-0.5651977062225342
-0.6498929262161255
-0.7221567034721375
-0.7812549471855164
-0.8269074559211731
-0.8591809272766113
-0.8783536553382874
-0.8847995400428772
-0.8788861632347107
-0.8609045147895813
-0.8310309052467346
-0.7893343567848206
-0.7358223795890808
-0.6705282330513
-0.5936414003372192
-0.5056423544883728
-0.40742745995521545
-0.3003888726234436
-0.18641886115074158
-0.0678442046046257
0.05271298438310623
0.17251113057136536
0.28887757658958435
0.39936503767967224
0.5018671154975891
0.5946703553199768
0.6764450669288635
0.7462050914764404
0.8032447695732117
0.8470758199691772
0.8773887157440186
0.8940113186836243
0.8969005942344666
0.8861328363418579
0.8619011640548706
0.8245238065719604
0.7744579911231995
0.712319552898407
0.6389115452766418
0.5552561283111572
0.46261030435562134
0.36245882511138916
0.2564753592014313
0.1464477777481079
0.034195490181446075
-0.0785084143280983
-0.18998220562934875
-0.2986433804035187
-0.40298938751220703
-0.501566469669342
-0.5929468870162964
-0.675717830657959
-0.7484956383705139
-0.8099519610404968
-0.858860194683075
-0.8941428661346436
-0.9149186015129089
-0.9205498099327087
-0.9106796383857727
-0.8852689862251282
-0.8446191549301147
-0.7893918752670288
-0.7206094861030579
-0.6396361589431763
-0.5481377243995667
-0.4480179250240326
-0.34133201837539673
-0.2301887571811676
-0.11665622144937515
-0.0026794299483299255
0.10998596996068954
0.2198081910610199
0.32549479603767395
0.4259904623031616
0.5204610824584961
0.6082718968391418
0.6889627575874329
0.750776469707489
0.8210776448249817
0.8763291239738464
0.9160926938056946
0.940364420413971
0.949478805065155
0.9440067410469055
0.9246428608894348
0.8921098709106445
0.8470814824104309
0.7901325225830078
0.7217435836791992
0.642335057258606
0.5523641705513
0.4524538218975067
0.3435341417789459
0.2269817590713501
0.1047014519572258
-0.020879097282886505
-0.146916925907135
-0.2703632116317749
-0.3882285952568054
-0.4978313148021698
-0.5969915986061096
-0.6841275095939636
-0.7582489848136902
-0.8188828825950623
-0.8659456968307495
-0.8996054530143738
-0.9201469421386719
-0.9278610348701477
-0.9229642152786255
-0.9055489301681519
-0.8755815029144287
-0.8329250812530518
-0.7774224877357483
-0.7090126276016235
-0.6278714537620544
-0.5345719456672668
-0.43019795417785645
-0.31640544533729553
-0.1953924596309662
-0.06978843361139297
0.057524748146533966
0.18361517786979675
0.30569547414779663
0.42127424478530884
0.5282422304153442
0.6249027252197266
0.7099502682685852
0.7824157476425171
0.8416122794151306
0.8870725035667419
0.9185089468955994
0.9357855916023254
0.9388963580131531
0.9279554486274719
0.9031867980957031
0.8649234771728516
0.8136071562767029
0.749804675579071
0.6742300391197205
0.5877813696861267
0.4915778338909149
0.3869902789592743
0.27564018964767456
0.1593669056892395
0.04015999287366867
-0.07993432134389877
-0.19889509677886963
-0.31478652358055115
-0.4257902204990387
-0.5302067399024963
-0.6264496445655823
-0.7130400538444519
-0.7886136770248413
-0.8519330024719238
-0.9019069075584412
-0.9376160502433777
-0.9583337903022766
-0.9635421633720398
-0.9529586434364319
-0.9265514016151428
-0.8845722675323486
-0.8275779485702515
-0.7564583420753479
-0.6724438071250916
-0.5771044492721558
-0.4723103940486908
-0.36016878485679626
-0.24293562769889832
-0.12290889769792557
-0.0023194774985313416
0.11676015704870224
0.23249384760856628
0.34332141280174255
0.4479787051677704
0.5454903244972229
0.6351500153541565
0.7164854407310486
0.7723987102508545
0.8433807492256165
0.8993253111839294
0.9399176239967346
0.9651857018470764
0.9754135012626648
0.9710538983345032
0.9526435136795044
0.9207251667976379
0.8757885098457336
0.8182414174079895
0.748419463634491
0.666648268699646
0.5733551383018494
0.4692222476005554
0.3553449511528015
0.2333727478981018
0.10556008666753769
-0.025292523205280304
-0.15601816773414612
-0.28336101770401
-0.40427181124687195
-0.5161589980125427
-0.6170387864112854
-0.7055630087852478
-0.7809643149375916
-0.8429273962974548
-0.891448974609375
-0.9266909956932068
-0.948853075504303
-0.9580848813056946
-0.9544157385826111
-0.9377378821372986
-0.9078177809715271
-0.8643620610237122
-0.807117223739624
-0.7360089421272278
-0.6513034105300903
-0.5537511110305786
-0.4446810781955719
-0.32601815462112427
-0.2002095878124237
-0.0700703039765358
0.06141262501478195
0.19127729535102844
0.31675562262535095
0.4353931248188019
0.5451091527938843
0.6442103981971741
0.7313777208328247
0.8056218028068542
0.8662371039390564
0.9127633571624756
0.9449355006217957
0.9626579284667969
0.9659703373908997
0.9550336599349976
0.9301059246063232
0.8915328979492188
0.8397454619407654
0.7752636075019836
0.698720395565033
0.6108976006507874
0.5127712488174438
0.4055686295032501
0.2908032238483429
0.1702839434146881
0.046084366738796234
-0.07954468578100204
-0.20427051186561584
-0.32580170035362244
-0.441971093416214
-0.5508007407188416
-0.6505197286605835
-0.7395845055580139
-0.8166695833206177
-0.8806611895561218
-0.9306492805480957
-0.9659202694892883
-0.9859440922737122
-0.9903689026832581
-0.9790205359458923
-0.951909601688385
-0.9092543721199036
-0.851515531539917
-0.7794325351715088
-0.69406658411026
-0.5968225598335266
-0.48945197463035583
-0.37401729822158813
-0.2528214454650879
-0.12830418348312378
-0.0029213503003120422
0.12098171561956406
0.24127456545829773
0.356125146150589
0.46403977274894714
0.5638769268989563
0.6548282504081726
0.7363806366920471
0.7801477313041687
0.8511101603507996
0.90743488073349
0.9488387703895569
0.9752909541130066
0.9869422316551208
0.9840651154518127
0.966987133026123
0.9360516667366028
0.8915676474571228
0.8338049054145813
0.7630202174186707
0.6795263886451721
0.5838295817375183
0.47677579522132874
0.35970547795295715
0.23456010222434998
0.10388102382421494
-0.029303379356861115
-0.16171947121620178
-0.29013606905937195
-0.4116508364677429
-0.5238891243934631
-0.625098466873169
-0.7141280770301819
-0.7903319597244263
-0.8534387946128845
-0.9034063816070557
-0.9402920603752136
-0.9641459584236145
-0.9749329686164856
-0.9724894165992737
-0.9565218091011047
-0.9266448020935059
-0.8824731707572937
-0.8237438797950745
-0.7504720091819763
-0.6631051898002625
-0.5626397132873535
-0.45066872239112854
-0.32934173941612244
-0.2012445032596588
-0.06922424584627151
0.06378792971372604
0.19494539499282837
0.32159867882728577
0.44138094782829285
0.5522396564483643
0.6524634957313538
0.7406771779060364
0.8158302307128906
0.8771757483482361
0.9242373704910278
0.9567710161209106
0.9747206568717957
0.9781827330589294
0.9673667550086975
0.9425691962242126
0.9041528105735779
0.8525404930114746
0.7882162928581238
0.7117467522621155
0.623815655708313
0.5252747535705566
0.4172118604183197
0.30100756883621216
0.17838257551193237
0.05140262097120285
-0.07757002860307693
-0.2059839367866516
-0.33123740553855896
-0.4508334696292877
-0.5624985694885254
-0.6642677187919617
-0.7545138597488403
-0.8319495916366577
-0.8955925107002258
-0.9447317719459534
-0.9788764119148254
-0.9977173209190369
-1.0010906457901
-0.9889562726020813
-0.9613935351371765
-0.9186186790466309
-0.8610138297080994
-0.7891843914985657
-0.7040073275566101
-0.6066933870315552
-0.49881109595298767
-0.382294625043869
-0.25939324498176575
-0.13258883357048035
-0.0044703856110572815
0.12241052836179733
0.24567389488220215
0.3632282316684723
0.4733474552631378
0.5746978521347046
0.6663381457328796
0.7476771473884583
0.7741987705230713
0.8446217179298401
0.9011104702949524
0.9433245062828064
0.9710928797721863
0.9843674898147583
0.983188271522522
0.9676516056060791
0.9378893971443176
0.8940532207489014
0.8363261818885803
0.7649644613265991
0.680386483669281
0.5832889080047607
0.4747876226902008
0.3565225899219513
0.23070073127746582
0.10003449767827988
-0.03242648392915726
-0.16353687644004822
-0.29031985998153687
-0.41017988324165344
-0.5210357308387756
-0.6213535666465759
-0.7101026773452759
-0.7866514325141907
-0.8506537079811096
-0.9019250273704529
-0.9403404593467712
-0.9657471776008606
-0.9779090285301208
-0.9764813780784607
-0.9610273241996765
-0.9310800433158875
-0.8862528800964355
-0.826377809047699
-0.7516603469848633
-0.6628036499023438
-0.561077892780304
-0.4483036696910858
-0.32675448060035706
-0.19900885224342346
-0.06778792291879654
0.06418269127607346
0.19427308440208435
0.32001209259033203
0.4391346871852875
0.5496124625205994
0.6496898531913757
0.7379099726676941
0.8131377100944519
0.8745598793029785
0.9216684699058533
0.954225480556488
0.9722095131874084
0.9757658839225769
0.9651549458503723
0.9407143592834473
0.9028292298316956
0.8519226908683777
0.7884562611579895
0.7129528522491455
0.6260246634483337
0.5284326672554016
0.42114701867103577
0.3054238557815552
0.18286621570587158
0.05546731501817703
-0.07441128045320511
-0.2041166126728058
-0.330852210521698
-0.45186254382133484
-0.564615786075592
-0.6669443845748901
-0.7571231722831726
-0.8338755369186401
-0.896332323551178
-0.9439626336097717
-0.9764917492866516
-0.9938283562660217
-0.9959998726844788
-0.983115017414093
-0.955345094203949
-0.9129308462142944
-0.8562119007110596
-0.7856828570365906
-0.7020605802536011
-0.6063530445098877
-0.4999150335788727
-0.3844893276691437
-0.2621855139732361
-0.13542023301124573
-0.006809018552303314
0.12098532170057297
0.24540382623672485
0.36413851380348206
0.4752390384674072
0.5771705508232117
0.6688215732574463
0.7494838237762451
0.755095362663269
0.8245380520820618
0.8809774518013
0.9239336252212524
0.9530311226844788
0.967974066734314
0.9685426354408264
0.9545866847038269
0.9260398745536804
0.8829336762428284
0.8254328966140747
0.7538976073265076
0.66895991563797
0.5716258883476257
0.46335700154304504
0.34610047936439514
0.22224968671798706
0.09452077001333237
-0.034231431782245636
-0.16121932864189148
-0.28389766812324524
-0.40008407831192017
-0.508012056350708
-0.6063270568847656
-0.6940281391143799
-0.7703990340232849
-0.834918737411499
-0.8871776461601257
-0.9268083572387695
-0.9534242749214172
-0.9665862917900085
-0.9658003449440002
-0.950550377368927
-0.9203800559043884
-0.8750107884407043
-0.8144789338111877
-0.7392644286155701
-0.6503661274909973
-0.5493025183677673
-0.4380274713039398
-0.3187972903251648
-0.19402572512626648
-0.06616608053445816
0.062356241047382355
0.18918615579605103
0.31205233931541443
0.42879295349121094
0.5373958349227905
0.6360568404197693
0.7232341170310974
0.7976992726325989
0.8585618734359741
0.9052671790122986
0.9375573396682739
0.9554254412651062
0.9590501189231873
0.948732316493988
0.9248470664024353
0.8878093361854553
0.8380550742149353
0.7760443687438965
0.7022777795791626
0.6173323392868042
0.5219112634658813
0.4169086515903473
0.30347776412963867
0.18310874700546265
0.05767517536878586
-0.07054928690195084
-0.19894549250602722
-0.32466647028923035
-0.44483140110969543
-0.5567380785942078
-0.6580495238304138
-0.7469269633293152
-0.8220654726028442
-0.8826606273651123
-0.9283149838447571
-0.9589322209358215
-0.9746111035346985
-0.9755609631538391
-0.9620409607887268
-0.9343259930610657
-0.8927087783813477
-0.8375227451324463
-0.7691954970359802
-0.6883125901222229
-0.5957010388374329
-0.49250170588493347
-0.3802269399166107
-0.2607780396938324
-0.1364118456840515
-0.00965813547372818
0.11682101339101791
0.2403838038444519
0.3585749566555023
0.46925386786460876
0.5706841945648193
0.6615673899650574
0.7410313487052917
0.723678469657898
0.7916846871376038
0.847773015499115
0.8912656903266907
0.9215362071990967
0.93801349401474
0.9402034878730774
0.9277190566062927
0.90032559633255
0.8579911589622498
0.8009447455406189
0.7297489643096924
0.6453614830970764
0.5491777062416077
0.443027526140213
0.329114705324173
0.20988845825195312
0.08788441866636276
-0.03443560749292374
-0.15480545163154602
-0.27122196555137634
-0.38196131587028503
-0.48556235432624817
-0.5807938575744629
-0.6666192412376404
-0.7421544194221497
-0.8066326975822449
-0.8593624234199524
-0.8996947407722473
-0.9269935488700867
-0.9406351447105408
-0.9400222897529602
-0.9246419072151184
-0.8941507339477539
-0.8484916090965271
-0.788002073764801
-0.7134891152381897
-0.626232922077179
-0.5279162526130676
-0.420492023229599
-0.30604782700538635
-0.1866985559463501
-0.06454094499349594
0.05834965407848358
0.17990389466285706
0.2980464994907379
0.41072195768356323
0.5159450173377991
0.611877977848053
0.696913480758667
0.7697437405586243
0.8294013142585754
0.8752656579017639
0.9070382118225098
0.924691915512085
0.928407609462738
0.91850346326828
0.8953847289085388
0.8594956994056702
0.8113003373146057
0.7512779831886292
0.6799400448799133
0.5978613495826721
0.505727231502533
0.4043911397457123
0.29493868350982666
0.17875811457633972
0.057589806616306305
-0.06644592434167862
-0.19087514281272888
-0.31295832991600037
-0.4298531115055084
-0.5388181805610657
-0.6374278664588928
-0.7237431406974792
-0.7963926196098328
-0.8545671105384827
-0.8979317545890808
-0.9265044927597046
-0.9405302405357361
-0.9403677582740784
-0.9264139533042908
-0.8990564346313477
-0.8586614727973938
-0.8055906891822815
-0.7402440905570984
-0.6631242036819458
-0.5749108791351318
-0.4765506088733673
-0.3693169951438904
-0.2548583149909973
-0.13519665598869324
-0.012669898569583893
0.11017734557390213
0.2307332158088684
0.34648415446281433
0.45516130328178406
0.5548480153083801
0.644048810005188
0.7216991782188416
0.6810100674629211
0.7470230460166931
0.8022996783256531
0.8459294438362122
0.8770126700401306
0.8946939706802368
0.8982154726982117
0.8869799971580505
0.8606340885162354
0.8191537857055664
0.7629224061965942
0.6927976012229919
0.6101292371749878
0.5167235732078552
0.4147391617298126
0.306519478559494
0.19441282749176025
0.08060988038778305
-0.03295660763978958
-0.14462551474571228
-0.2529701590538025
-0.3567165732383728
-0.45468011498451233
-0.5457164645195007
-0.6287057399749756
-0.7025572657585144
-0.7662184834480286
-0.8186864256858826
-0.8590156435966492
-0.8863317370414734
-0.8998539447784424
-0.8989461064338684
-0.8831832408905029
-0.8524371385574341
-0.8069654107093811
-0.7474662661552429
-0.6750718951225281
-0.5912766456604004
-0.4978002607822418
-0.3964516222476959
-0.28902238607406616
-0.17724931240081787
-0.06283935159444809
0.05247724801301956
0.16690364480018616
0.27855587005615234
0.3854960501194
0.48579421639442444
0.5776219964027405
0.659346878528595
0.7296080589294434
0.7873712182044983
0.8319450616836548
0.8629624247550964
0.880338191986084
0.8842158317565918
0.8749001622200012
0.852802574634552
0.8183923959732056
0.7721715569496155
0.7146607041358948
0.6464133858680725
0.5680358409881592
0.4802321493625641
0.3838512599468231
0.2799394428730011
0.16980060935020447
0.05503592640161514
-0.06242547184228897
-0.18033939599990845
-0.2962007522583008
-0.40736302733421326
-0.5112074017524719
-0.6053367257118225
-0.6877651810646057
-0.7570405602455139
-0.8122836947441101
-0.8531395792961121
-0.8796557784080505
-0.8921554684638977
-0.8911023736000061
-0.8770076632499695
-0.8503673672676086
-0.8116361498832703
-0.7612299919128418
-0.6995629072189331
-0.627096951007843
-0.544414222240448
-0.45229360461235046
-0.3517860174179077
-0.24427038431167603
-0.13147836923599243
-0.015472345054149628
0.10142723470926285
0.21675583720207214
0.32804763317108154
0.4329849183559418
0.5295215845108032
0.6159743070602417
0.6910741925239563
0.6283054947853088
0.6916056871414185
0.7454015612602234
0.7885400652885437
0.8198517560958862
0.8382133841514587
0.8426327109336853
0.8323560357093811
0.8069800734519958
0.7665682435035706
0.7117384076118469
0.6437020897865295
0.5642111897468567
0.47542956471443176
0.37972328066825867