# vtk DataFile Version 3.0
2D PINN Solution
ASCII
DATASET STRUCTURED_GRID
DIMENSIONS 100 100 1
POINTS 10000 float
-1.0 -1.0 0.0
-0.9797979797979798 -1.0 0.0
-0.9595959595959596 -1.0 0.0
-0.9393939393939394 -1.0 0.0
-0.9191919191919192 -1.0 0.0
-0.898989898989899 -1.0 0.0
-0.8787878787878788 -1.0 0.0
-0.8585858585858586 -1.0 0.0
-0.8383838383838383 -1.0 0.0
-0.8181818181818181 -1.0 0.0
-0.797979797979798 -1.0 0.0
-0.7777777777777778 -1.0 0.0
-0.7575757575757576 -1.0 0.0
-0.7373737373737373 -1.0 0.0
-0.7171717171717171 -1.0 0.0
-0.696969696969697 -1.0 0.0
-0.6767676767676767 -1.0 0.0
-0.6565656565656566 -1.0 0.0
-0.6363636363636364 -1.0 0.0
-0.6161616161616161 -1.0 0.0
-0.5959595959595959 -1.0 0.0
-0.5757575757575757 -1.0 0.0
-0.5555555555555556 -1.0 0.0
-0.5353535353535352 -1.0 0.0
-0.5151515151515151 -1.0 0.0
-0.4949494949494949 -1.0 0.0
-0.4747474747474747 -1.0 0.0
-0.4545454545454545 -1.0 0.0
-0.43434343434343425 -1.0 0.0
-0.41414141414141414 -1.0 0.0
-0.3939393939393939 -1.0 0.0
-0.3737373737373737 -1.0 0.0
-0.3535353535353535 -1.0 0.0
-0.33333333333333326 -1.0 0.0
-0.31313131313131304 -1.0 0.0
-0.2929292929292928 -1.0 0.0
-0.2727272727272727 -1.0 0.0
-0.2525252525252525 -1.0 0.0
-0.23232323232323226 -1.0 0.0
-0.21212121212121204 -1.0 0.0
-0.19191919191919182 -1.0 0.0
-0.1717171717171716 -1.0 0.0
-0.1515151515151515 -1.0 0.0
-0.13131313131313127 -1.0 0.0
-0.11111111111111105 -1.0 0.0
-0.09090909090909083 -1.0 0.0
-0.07070707070707061 -1.0 0.0
-0.050505050505050386 -1.0 0.0
-0.030303030303030276 -1.0 0.0
-0.010101010101010055 -1.0 0.0
0.010101010101010166 -1.0 0.0
0.030303030303030498 -1.0 0.0
0.05050505050505061 -1.0 0.0
0.07070707070707072 -1.0 0.0
0.09090909090909105 -1.0 0.0
0.11111111111111116 -1.0 0.0
0.1313131313131315 -1.0 0.0
0.1515151515151516 -1.0 0.0
0.1717171717171717 -1.0 0.0
0.19191919191919204 -1.0 0.0
0.21212121212121215 -1.0 0.0
0.2323232323232325 -1.0 0.0
0.2525252525252526 -1.0 0.0
0.27272727272727293 -1.0 0.0
0.29292929292929304 -1.0 0.0
0.31313131313131315 -1.0 0.0
0.3333333333333335 -1.0 0.0
0.3535353535353536 -1.0 0.0
0.3737373737373739 -1.0 0.0
0.39393939393939403 -1.0 0.0
0.41414141414141437 -1.0 0.0
0.4343434343434345 -1.0 0.0
0.4545454545454546 -1.0 0.0
0.4747474747474749 -1.0 0.0
0.49494949494949503 -1.0 0.0
0.5151515151515154 -1.0 0.0
0.5353535353535355 -1.0 0.0
0.5555555555555556 -1.0 0.0
0.5757575757575759 -1.0 0.0
0.595959595959596 -1.0 0.0
0.6161616161616164 -1.0 0.0
0.6363636363636365 -1.0 0.0
0.6565656565656568 -1.0 0.0
0.6767676767676769 -1.0 0.0
0.696969696969697 -1.0 0.0
0.7171717171717173 -1.0 0.0
0.7373737373737375 -1.0 0.0
0.7575757575757578 -1.0 0.0
0.7777777777777779 -1.0 0.0
0.7979797979797982 -1.0 0.0
0.8181818181818183 -1.0 0.0
0.8383838383838385 -1.0 0.0
0.8585858585858588 -1.0 0.0
0.8787878787878789 -1.0 0.0
0.8989898989898992 -1.0 0.0
0.9191919191919193 -1.0 0.0
0.9393939393939394 -1.0 0.0
0.9595959595959598 -1.0 0.0
0.9797979797979799 -1.0 0.0
1.0 -1.0 0.0
-1.0 -0.9797979797979798 0.0
-0.9797979797979798 -0.9797979797979798 0.0
-0.9595959595959596 -0.9797979797979798 0.0
-0.9393939393939394 -0.9797979797979798 0.0
-0.9191919191919192 -0.9797979797979798 0.0
-0.898989898989899 -0.9797979797979798 0.0
-0.8787878787878788 -0.9797979797979798 0.0
-0.8585858585858586 -0.9797979797979798 0.0
-0.8383838383838383 -0.9797979797979798 0.0
-0.8181818181818181 -0.9797979797979798 0.0
-0.797979797979798 -0.9797979797979798 0.0
-0.7777777777777778 -0.9797979797979798 0.0
-0.7575757575757576 -0.9797979797979798 0.0
-0.7373737373737373 -0.9797979797979798 0.0
-0.7171717171717171 -0.9797979797979798 0.0
-0.696969696969697 -0.9797979797979798 0.0
-0.6767676767676767 -0.9797979797979798 0.0
-0.6565656565656566 -0.9797979797979798 0.0
-0.6363636363636364 -0.9797979797979798 0.0
-0.6161616161616161 -0.9797979797979798 0.0
-0.5959595959595959 -0.9797979797979798 0.0
-0.5757575757575757 -0.9797979797979798 0.0
-0.5555555555555556 -0.9797979797979798 0.0
-0.5353535353535352 -0.9797979797979798 0.0
-0.5151515151515151 -0.9797979797979798 0.0
-0.4949494949494949 -0.9797979797979798 0.0
-0.4747474747474747 -0.9797979797979798 0.0
-0.4545454545454545 -0.9797979797979798 0.0
-0.43434343434343425 -0.9797979797979798 0.0
-0.41414141414141414 -0.9797979797979798 0.0
-0.3939393939393939 -0.9797979797979798 0.0
-0.3737373737373737 -0.9797979797979798 0.0
-0.3535353535353535 -0.9797979797979798 0.0
-0.33333333333333326 -0.9797979797979798 0.0
-0.31313131313131304 -0.9797979797979798 0.0
-0.2929292929292928 -0.9797979797979798 0.0
-0.2727272727272727 -0.9797979797979798 0.0
-0.2525252525252525 -0.9797979797979798 0.0
-0.23232323232323226 -0.9797979797979798 0.0
-0.21212121212121204 -0.9797979797979798 0.0
-0.19191919191919182 -0.9797979797979798 0.0
-0.1717171717171716 -0.9797979797979798 0.0
-0.1515151515151515 -0.9797979797979798 0.0
-0.13131313131313127 -0.9797979797979798 0.0
-0.11111111111111105 -0.9797979797979798 0.0
-0.09090909090909083 -0.9797979797979798 0.0
-0.07070707070707061 -0.9797979797979798 0.0
-0.050505050505050386 -0.9797979797979798 0.0
-0.030303030303030276 -0.9797979797979798 0.0
-0.010101010101010055 -0.9797979797979798 0.0
0.010101010101010166 -0.9797979797979798 0.0
0.030303030303030498 -0.9797979797979798 0.0
0.05050505050505061 -0.9797979797979798 0.0
0.07070707070707072 -0.9797979797979798 0.0
0.09090909090909105 -0.9797979797979798 0.0
0.11111111111111116 -0.9797979797979798 0.0
0.1313131313131315 -0.9797979797979798 0.0
0.1515151515151516 -0.9797979797979798 0.0
0.1717171717171717 -0.9797979797979798 0.0
0.19191919191919204 -0.9797979797979798 0.0
0.21212121212121215 -0.9797979797979798 0.0
0.2323232323232325 -0.9797979797979798 0.0
0.2525252525252526 -0.9797979797979798 0.0
0.27272727272727293 -0.9797979797979798 0.0
0.29292929292929304 -0.9797979797979798 0.0
0.31313131313131315 -0.9797979797979798 0.0
0.3333333333333335 -0.9797979797979798 0.0
0.3535353535353536 -0.9797979797979798 0.0
0.3737373737373739 -0.9797979797979798 0.0
0.39393939393939403 -0.9797979797979798 0.0
0.41414141414141437 -0.9797979797979798 0.0
0.4343434343434345 -0.9797979797979798 0.0
0.4545454545454546 -0.9797979797979798 0.0
0.4747474747474749 -0.9797979797979798 0.0
0.49494949494949503 -0.9797979797979798 0.0
0.5151515151515154 -0.9797979797979798 0.0
0.5353535353535355 -0.9797979797979798 0.0
0.5555555555555556 -0.9797979797979798 0.0
0.5757575757575759 -0.9797979797979798 0.0
0.595959595959596 -0.9797979797979798 0.0
0.6161616161616164 -0.9797979797979798 0.0
0.6363636363636365 -0.9797979797979798 0.0
0.6565656565656568 -0.9797979797979798 0.0
0.6767676767676769 -0.9797979797979798 0.0
0.696969696969697 -0.9797979797979798 0.0
0.7171717171717173 -0.9797979797979798 0.0
0.7373737373737375 -0.9797979797979798 0.0
0.7575757575757578 -0.9797979797979798 0.0
0.7777777777777779 -0.9797979797979798 0.0
0.7979797979797982 -0.9797979797979798 0.0
0.8181818181818183 -0.9797979797979798 0.0
0.8383838383838385 -0.9797979797979798 0.0
0.8585858585858588 -0.9797979797979798 0.0
0.8787878787878789 -0.9797979797979798 0.0
0.8989898989898992 -0.9797979797979798 0.0
0.9191919191919193 -0.9797979797979798 0.0
0.9393939393939394 -0.9797979797979798 0.0
0.9595959595959598 -0.9797979797979798 0.0
0.9797979797979799 -0.9797979797979798 0.0
1.0 -0.9797979797979798 0.0
-1.0 -0.9595959595959596 0.0
-0.9797979797979798 -0.9595959595959596 0.0
-0.9595959595959596 -0.9595959595959596 0.0
-0.9393939393939394 -0.9595959595959596 0.0
-0.9191919191919192 -0.9595959595959596 0.0
-0.898989898989899 -0.9595959595959596 0.0
-0.8787878787878788 -0.9595959595959596 0.0
-0.8585858585858586 -0.9595959595959596 0.0
-0.8383838383838383 -0.9595959595959596 0.0
-0.8181818181818181 -0.9595959595959596 0.0
-0.797979797979798 -0.9595959595959596 0.0
-0.7777777777777778 -0.9595959595959596 0.0
-0.7575757575757576 -0.9595959595959596 0.0
-0.7373737373737373 -0.9595959595959596 0.0
-0.7171717171717171 -0.9595959595959596 0.0
-0.696969696969697 -0.9595959595959596 0.0
-0.6767676767676767 -0.9595959595959596 0.0
-0.6565656565656566 -0.9595959595959596 0.0
-0.6363636363636364 -0.9595959595959596 0.0
-0.6161616161616161 -0.9595959595959596 0.0
-0.5959595959595959 -0.9595959595959596 0.0
-0.5757575757575757 -0.9595959595959596 0.0
-0.5555555555555556 -0.9595959595959596 0.0
-0.5353535353535352 -0.9595959595959596 0.0
-0.5151515151515151 -0.9595959595959596 0.0
-0.4949494949494949 -0.9595959595959596 0.0
-0.4747474747474747 -0.9595959595959596 0.0
-0.4545454545454545 -0.9595959595959596 0.0
-0.43434343434343425 -0.9595959595959596 0.0
-0.41414141414141414 -0.9595959595959596 0.0
-0.3939393939393939 -0.9595959595959596 0.0
-0.3737373737373737 -0.9595959595959596 0.0
-0.3535353535353535 -0.9595959595959596 0.0
-0.33333333333333326 -0.9595959595959596 0.0
-0.31313131313131304 -0.9595959595959596 0.0
-0.2929292929292928 -0.9595959595959596 0.0
-0.2727272727272727 -0.9595959595959596 0.0
-0.2525252525252525 -0.9595959595959596 0.0
-0.23232323232323226 -0.9595959595959596 0.0
-0.21212121212121204 -0.9595959595959596 0.0
-0.19191919191919182 -0.9595959595959596 0.0
-0.1717171717171716 -0.9595959595959596 0.0
-0.1515151515151515 -0.9595959595959596 0.0
-0.13131313131313127 -0.9595959595959596 0.0
-0.11111111111111105 -0.9595959595959596 0.0
-0.09090909090909083 -0.9595959595959596 0.0
-0.07070707070707061 -0.9595959595959596 0.0
-0.050505050505050386 -0.9595959595959596 0.0
-0.030303030303030276 -0.9595959595959596 0.0
-0.010101010101010055 -0.9595959595959596 0.0
0.010101010101010166 -0.9595959595959596 0.0
0.030303030303030498 -0.9595959595959596 0.0
0.05050505050505061 -0.9595959595959596 0.0
0.07070707070707072 -0.9595959595959596 0.0
0.09090909090909105 -0.9595959595959596 0.0
0.11111111111111116 -0.9595959595959596 0.0
0.1313131313131315 -0.9595959595959596 0.0
0.1515151515151516 -0.9595959595959596 0.0
0.1717171717171717 -0.9595959595959596 0.0
0.19191919191919204 -0.9595959595959596 0.0
0.21212121212121215 -0.9595959595959596 0.0
[...]
POINT_DATA 10000
SCALARS u float 1
LOOKUP_TABLE default
0.969089925289154
0.9735117554664612
0.9630196690559387
0.9363229870796204
0.8923090100288391
0.8301950097084045
0.7497326731681824
0.6514239311218262
0.5367133021354675
0.40808382630348206
0.2689952552318573
0.12364362925291061
-0.02343449741601944
-0.16781097650527954
-0.3055723011493683
-0.433578222990036
-0.5495560765266418
-0.6520523428916931
-0.7402933239936829
-0.8140047192573547
-0.8732467293739319
-0.9182620644569397
-0.9493747353553772
-0.9669099450111389
-0.9711547493934631
-0.9623298048973083
-0.9406026005744934
-0.906103789806366
-0.8589673638343811
-0.7993806004524231
-0.7276483774185181
-0.6442609429359436
-0.5499568581581116
-0.4457777440547943
-0.3331025540828705
-0.21364125609397888
-0.08940456062555313
0.03736398369073868
0.16429027915000916
0.28897228837013245
0.40909716486930847
0.5225203633308411
0.6273362040519714
0.7219005227088928
0.8048321604728699
0.8749874234199524
0.9314247965812683
0.9733684062957764
1.0001763105392456
1.0113282203674316
1.0064314603805542
0.9852556586265564
0.9477892518043518
0.8943125605583191
0.8254650235176086
0.7422991394996643
0.6462827324867249
0.5392626523971558
0.4233742654323578
0.30092236399650574
0.1742730289697647
0.04575319588184357
-0.0824085995554924
-0.20811578631401062
-0.3294227719306946
-0.4445473253726959
-0.5518777370452881
-0.6499795913696289
-0.7375981211662292
-0.813653290271759
-0.8772291541099548
-0.9275621175765991
-0.9640249609947205
-0.9861103892326355
-0.9934298396110535
-0.9857041239738464
-0.9627732634544373
-0.924616277217865
-0.871382474899292
-0.8034342527389526
-0.7214044332504272
-0.6262538433074951
-0.5193255543708801
-0.4023759067058563
-0.27757588028907776
-0.14746126532554626
-0.01483616977930069
0.11737322062253952
0.246282696723938
0.3692265748977661
0.4839026927947998
0.5884659886360168
0.6815818548202515
0.7624086141586304
0.830555260181427
0.886001467704773
0.9290111660957336
0.9600467085838318
0.9796921610832214
0.9885929822921753
0.9690542817115784
0.9734383225440979
0.962009608745575
0.9334681630134583
0.8867974281311035
0.8214552998542786
0.7375780940055847
0.6361739039421082
0.5192443132400513
0.38976868987083435
0.25152289867401123
0.10874498635530472
-0.03427431732416153
-0.1735827624797821
-0.3058517277240753
-0.4285060167312622
-0.5397214889526367
-0.6383308172225952
-0.7236805558204651
-0.7954843640327454
-0.8536996245384216
-0.8984174728393555
-0.9297934174537659
-0.9479902386665344
-0.9531522393226624
-0.9453912377357483
-0.9247984290122986
-0.8914655447006226
-0.8455238342285156
-0.7871958017349243
-0.7168477773666382
-0.6350513100624084
-0.5426238775253296
-0.44066062569618225
-0.3305458426475525
-0.21393150091171265
-0.09269974380731583
0.031093575060367584
0.1552881896495819
0.27768880128860474
0.39613667130470276
0.5085684061050415
0.6130728125572205
0.707923173904419
0.7915917038917542
0.8627510070800781
0.9202607870101929
0.96314936876297
0.9906073212623596
1.001985788345337
0.9968315362930298
0.9749302268028259
0.9363788366317749
0.8816497921943665
0.8116480708122253
0.7277175784111023
0.6316009163856506
0.525333821773529
0.4111175239086151
0.29118216037750244
0.16769126057624817
0.04268777370452881
-0.08190730959177017
-0.20427358150482178
-0.32266363501548767
-0.43540069460868835
-0.5408892035484314
-0.6376417279243469
-0.7243137359619141
-0.7997226119041443
-0.8628610968589783
-0.9128957390785217
-0.9491538405418396
-0.9711182713508606
-0.978405773639679
-0.97076815366745
-0.9480852484703064
-0.9103797674179077
-0.8578407168388367
-0.7908537983894348
-0.7100515961647034
-0.61636883020401
-0.5110918283462524
-0.3958990275859833
-0.2728705108165741
-0.1444583535194397
-0.013401784002780914
0.11740141361951828
0.2450525462627411
0.3668351471424103
0.4803602397441864
0.5836904644966125
0.675395131111145
0.7545610070228577
0.8207449316978455
0.8739032745361328
0.9143029451370239
0.9424256682395935
0.9588934183120728
0.9643971920013428
0.9519469141960144
0.955286979675293
0.9420861005783081
0.9111598134040833
0.8617562651634216
0.7937514185905457
0.7078221440315247
0.6055665612220764
0.48950284719467163
0.3629245460033417
0.22961914539337158
0.09350954741239548
-0.0416974201798439
-0.17276427149772644
-0.2970631420612335
-0.4125858247280121
-0.5178784728050232
-0.6119313836097717
-0.6940801739692688
-0.7639034986495972
-0.8211522698402405
-0.8656899929046631
-0.8974482417106628
-0.9163989424705505
-0.9225326776504517
-0.9158585071563721
-0.8964144587516785
-0.8642914891242981
-0.8196702599525452
-0.7628659009933472
-0.6943723559379578
-0.614893913269043
-0.5253702998161316
-0.4269762337207794
-0.3210960924625397
-0.2092893123626709
-0.09325333684682846
0.02522214502096176
0.14428168535232544
0.26202577352523804
0.37653693556785583
0.4859018921852112
0.5882484316825867
0.6817822456359863
0.7648269534111023
0.8358497023582458
0.8934817910194397
0.9365350604057312
0.9640175700187683
0.9751667380332947
0.9694965481758118
0.9468631744384766
0.9075338840484619
0.8522431254386902
0.7822036743164062
0.6990604400634766
0.6047785878181458
0.5014976859092712
0.39136624336242676
0.27642008662223816
0.15852323174476624
0.039363883435726166
-0.07948607951402664
-0.19650590419769287
-0.3101638853549957
-0.4188988208770752
-0.5211291313171387
-0.6153081655502319
-0.6999768614768982
-0.7738245725631714
-0.8357231616973877
-0.8847477436065674
-0.9201739430427551
-0.94147127866745
-0.9482840895652771
-0.940423309803009
-0.9178511500358582
-0.8806812167167664
-0.8291909098625183
-0.7638382911682129
-0.685297429561615
-0.5945022106170654
-0.4926876723766327
-0.3814302980899811
-0.26266294717788696
-0.13866013288497925
-0.011976532638072968
0.11465244740247726
0.23845255374908447
0.35676971077919006
0.4672187268733978
0.5678107738494873
0.6570313572883606
0.7338628768920898
0.7977622151374817
0.8486022353172302
0.8865861296653748
0.9121590256690979
0.9259288907051086
0.9285947680473328
0.9171627163887024
0.9184426665306091
0.9027430415153503
0.8691551685333252
0.8173680901527405
0.7478278279304504
0.6618357300758362
0.5615435242652893
0.44981613755226135
0.32997316122055054
0.20547258853912354
0.07960458844900131
-0.04472751170396805
-0.16510847210884094
-0.27960851788520813
-0.3867126405239105
-0.4852246940135956
-0.5741892457008362
-0.652825117111206
-0.7204940319061279
-0.7766772508621216
-0.8209627270698547
-0.8530322313308716
-0.8726474642753601
-0.8796520233154297
-0.873968780040741
-0.8556126356124878
-0.8247189521789551
-0.781568706035614
-0.7266207337379456
-0.6605435013771057
-0.5842072367668152
-0.49868860840797424
-0.4052259922027588
-0.3051741421222687
-0.19995763897895813
-0.09103769809007645
0.02010854333639145
0.13196903467178345
0.24298712611198425
0.35152313113212585
0.45585548877716064
0.5541917681694031
0.644702672958374
0.7255791425704956
0.7950930595397949
0.8516516089439392
0.8938559889793396
0.9205535054206848
0.9309005737304688
0.9244356751441956
0.9011498689651489
0.8615474104881287
0.8066622614860535
0.7380141615867615
0.6574874520301819
0.5671692490577698
0.4691595137119293
0.3654220700263977
0.2576947808265686
0.14748108386993408
0.03610502928495407
-0.07519703358411789
-0.18518313765525818
-0.2925187349319458
-0.39575567841529846
-0.493339866399765
-0.5836737155914307
-0.6651952862739563
-0.7364636659622192
-0.7962246537208557
-0.8434534668922424
-0.8773736357688904
-0.8974465727806091
-0.9033660292625427
-0.8950214982032776
-0.8724930286407471
-0.836020827293396
-0.7860070466995239
-0.7230148911476135
-0.6477881669998169
-0.5612778663635254
-0.4646700918674469
-0.3594209849834442
-0.24727162718772888
-0.1302473247051239
-0.010619916021823883
0.10916075855493546
0.2265682816505432
0.3391282856464386
0.4445529878139496
0.5408642292022705
0.6264781355857849
0.7002621293067932
0.7615315318107605
0.8100147843360901
0.845788300037384
0.8692006468772888
0.8807925581932068
0.8812316656112671
0.8644890785217285
0.8628137111663818
0.8441622257232666
0.8080704808235168
0.7548142075538635
0.6854867339134216
0.6019753813743591
0.5068161487579346
0.4029398560523987
0.29336467385292053
0.1809251606464386
0.0680835172533989
-0.043140240013599396
-0.15112563967704773
-0.2545572817325592
-0.3523058593273163
-0.44334062933921814
-0.5266760587692261
-0.6013623476028442
-0.666504442691803
-0.7212886810302734
-0.7650102972984314
-0.7970913052558899
-0.8170909285545349
-0.8247188329696655
-0.8198366165161133
-0.802478015422821
-0.7728660702705383
-0.731428861618042
-0.67881178855896
-0.6158749461174011
-0.5436611175537109
-0.4633542597293854
-0.37621089816093445
-0.2835020124912262
-0.18646389245986938
-0.086286760866642
0.015879444777965546
0.11886926740407944
0.22145015001296997
0.3222614824771881
0.4197801351547241
0.5123165249824524
0.5980452299118042
0.6750676035881042
0.741500198841095
0.7955688834190369
0.8357111811637878
0.8606669902801514
0.8695822358131409
0.8620935082435608
0.8383997082710266
0.7992845177650452
0.7460781931877136
0.6805371642112732
0.6046636700630188
0.5205036401748657
0.42996150255203247
0.33469200134277344
0.23606747388839722
0.1352236568927765
0.03315310925245285
-0.0691879466176033
-0.17076987028121948
-0.27042293548583984
-0.3667955994606018
-0.4583756625652313
-0.5435471534729004
-0.6206783652305603
-0.6882312297821045
-0.7448469400405884
-0.7894190549850464
-0.8211250901222229
-0.8394367694854736
-0.8441054821014404
-0.8351246118545532
-0.8127034306526184
-0.7772312760353088
-0.7292467355728149
-0.669433057308197
-0.5986111164093018
-0.5177528262138367
-0.4279910922050476
-0.33064863085746765
-0.22724589705467224
-0.11951013654470444
-0.00936136394739151
0.10112353414297104
0.20976769924163818
0.3143830895423889
0.4128727912902832
0.5033334493637085
0.5841580033302307
0.6540995240211487
0.7123070955276489
0.7583189010620117
0.7920335531234741
0.8136431574821472
0.8235713839530945
0.8224155306816101
0.7941948771476746
0.7889429926872253
0.7673176527023315
0.7294421792030334
0.676246702671051
0.6094262003898621
0.5312808156013489
0.4444482624530792
0.351602166891098
0.2551809847354889
0.15721943974494934
0.05929826945066452
-0.037389881908893585
-0.13190913200378418
-0.22342923283576965
-0.3111056983470917
-0.3939996659755707
-0.47106078267097473
-0.5411604642868042
-0.6031491756439209
-0.6559260487556458
-0.6985039114952087
-0.7300614714622498
-0.7499774098396301
-0.7578520178794861
-0.7535257935523987
-0.7370935082435608
-0.7089065909385681
-0.6695772409439087
-0.61995530128479
-0.5610845685005188
-0.49414023756980896
-0.42035365104675293
-0.34092673659324646
-0.2569752633571625
-0.16950002312660217
-0.07939783483743668
0.01249142736196518
0.10531029850244522
0.19810456037521362
0.28974801301956177
0.37889429926872253
0.46396294236183167
0.5431650876998901
0.6145700812339783
0.6762132048606873
0.7262195944786072
0.7629497051239014
0.7851364016532898
0.7920094132423401
0.7833948135375977
0.7597547173500061
0.7221583724021912
0.6721652150154114
0.61163729429245
0.5425171852111816
0.4666232764720917
0.38552048802375793
0.3004642426967621
0.21244296431541443
0.12225686758756638
0.030632905662059784
-0.061666302382946014
-0.15375855565071106
-0.24457749724388123
-0.3328526020050049
-0.4171206057071686
-0.4957861602306366
-0.5672067403793335
-0.6298040151596069
-0.6821707487106323
-0.723156750202179
-0.7519290447235107
-0.7679880857467651
-0.7711533904075623
-0.7615301609039307
-0.7394563555717468
-0.7054584622383118
-0.6602089405059814
-0.6044957637786865
-0.5392054915428162
-0.4653156101703644
-0.3839007019996643
-0.29613566398620605
-0.2033075988292694
-0.10682182759046555
-0.008212156593799591
0.0908670648932457
0.18865743279457092
0.28333401679992676
0.37307265400886536
0.45612409710884094
0.530907392501831
0.5960951447486877
0.6506717801094055
0.6939664483070374
0.7256568074226379
0.7457339763641357
0.7544634938240051
0.7523309588432312
0.7071233987808228
0.6980960369110107
0.6740268468856812
0.6356900334358215
0.5846193432807922
0.5229321718215942
0.45305466651916504
0.37740471959114075
0.2981221079826355
0.21689367294311523
0.13491877913475037
0.05297350138425827
-0.02843756228685379
-0.10890693217515945
-0.1879633069038391
-0.26495859026908875
-0.33900925517082214
-0.4090011715888977
-0.4736497104167938
-0.5315858125686646
-0.5814632773399353
-0.6220527291297913
-0.6523261070251465
-0.6715181469917297
-0.6791691780090332
-0.6751412153244019
-0.659629762172699
-0.6331552267074585
-0.5965248942375183
-0.5507752299308777
-0.4970901906490326
-0.4367063343524933
-0.3708076477050781
-0.3004544973373413
-0.2265411913394928
-0.1497957706451416
-0.07082972675561905
0.009793601930141449
0.09146275371313095
0.17343148589134216
0.2547444999217987
0.33419081568717957
0.4102841317653656
0.48129919171333313
0.5453348159790039
0.6004366278648376
0.6447487473487854
0.6766849160194397
0.6950994729995728
0.6994273662567139
0.6897665858268738
0.6668694615364075
0.6320408582687378
0.5869420766830444
0.5333585739135742
0.4729718863964081
0.4072139859199524
0.3371921479701996
0.26372963190078735
0.18744578957557678
0.10886838287115097
0.028541751205921173
-0.05288872867822647
-0.1346120834350586
-0.21561545133590698
-0.2946798503398895
-0.370398610830307
-0.44123342633247375
-0.5055930614471436
-0.5619385242462158
-0.6088931560516357
-0.64533531665802
-0.6704708337783813
-0.6838579773902893
-0.6853971481323242
-0.6752919554710388
-0.6539903879165649
-0.6221259832382202
-0.5804640650749207
-0.5298624038696289
-0.47124168276786804
-0.4055640399456024
-0.33382448554039
-0.2570450007915497
-0.17627421021461487
-0.0925992801785469
-0.00716467946767807
0.07881089299917221
0.16401079297065735
0.24702391028404236
0.32635775208473206
0.40048858523368835
0.46793240308761597
0.5273323059082031
0.5775428414344788
0.6176921129226685
0.6472237706184387
0.665903627872467
0.6738013625144958
0.6712620854377747
0.6047822833061218
0.5923119783401489
0.56690913438797
0.5299488306045532
0.4833849370479584
0.4294711649417877
0.37043341994285583
0.30818918347358704
0.2441750466823578
0.17929309606552124
0.1139887198805809
0.04838698357343674
-0.01751963049173355
-0.08369559794664383
-0.14991378784179688
-0.21566137671470642
-0.2800956070423126
-0.34206679463386536
-0.4001809060573578
-0.45291563868522644
-0.49874380230903625
-0.536260187625885
-0.5642934441566467
-0.5819969177246094
-0.5889032483100891
-0.5849478840827942
-0.570471465587616
-0.5461707711219788
-0.5130323171615601
-0.47222933173179626
-0.42500483989715576
-0.37254270911216736
-0.31588509678840637
-0.2558639943599701
-0.19309914112091064
-0.12803730368614197
-0.06102622300386429
0.0075911954045295715
0.07737759500741959
0.14772257208824158
0.21777120232582092
0.2863953113555908
0.3521861135959625
0.41349485516548157
0.46851396560668945
0.5154038667678833
0.5524651408195496
0.5783216953277588
0.592102587223053
0.593568742275238
0.5831515789031982
0.5618690252304077
0.5311537981033325
0.49259865283966064
0.4477141201496124
0.39774996042251587
0.3436218202114105
0.28593647480010986
0.22508499026298523
0.1613686978816986
0.09511028975248337
0.026739902794361115
-0.04314132779836655
-0.11373946815729141
-0.18405380845069885
-0.2528931200504303
-0.31890979409217834
-0.38065198063850403
-0.4366392195224762
-0.4854569733142853
-0.5258508324623108
-0.5568175911903381
-0.5776708722114563
-0.5880669355392456
-0.5879948735237122
-0.5777344107627869
-0.5577987432479858
-0.5288747549057007
-0.4917626678943634
-0.4473353922367096
-0.39650094509124756
-0.34017276763916016
-0.27924415469169617
-0.2145768105983734
-0.14699098467826843
-0.07727501541376114
-0.006205953657627106
0.06540704518556595
0.1366845667362213
0.20663344860076904
0.27413231134414673
0.3379388749599457
0.396736741065979
0.4492151737213135
0.49415507912635803
0.5305289030075073
0.5575662851333618
0.5748052000999451
0.5821070075035095
0.5796480774879456
0.48937293887138367
0.47435447573661804
0.4492224454879761
0.4157765209674835
0.37610986828804016
0.33228468894958496
0.2860448360443115
0.23863425850868225
0.19074484705924988
0.14257410168647766
0.09396447986364365
0.04457511752843857
-0.0059431567788124084
-0.0577893927693367
-0.11089185625314713
-0.16483250260353088
-0.2188144028186798
-0.2716836631298065
-0.32201120257377625
-0.36819693446159363
-0.40862298011779785
-0.44179973006248474
-0.46650007367134094
-0.48187723755836487
-0.48752591013908386
-0.48350784182548523
-0.4703252613544464
-0.4488416016101837
-0.4201694428920746
-0.385524183511734
-0.34609130024909973
-0.3028954565525055
-0.25673019886016846
-0.20813730359077454
-0.15743672847747803
-0.10480504482984543
-0.0503699854016304
0.005683980882167816
0.06302817910909653
0.12111306935548782
0.1791258156299591
0.2359764575958252
0.2903141379356384
0.3405877947807312
0.3851415812969208
0.4223596751689911
0.45084038376808167
0.4695807695388794
0.4781315326690674
0.476674348115921
0.465984046459198
0.44727417826652527
0.42195388674736023
0.39136067032814026
0.35656434297561646
0.3182635009288788
0.27680814266204834
0.23230433464050293
0.1847550868988037
0.1342000663280487
0.08081454783678055
0.024971328675746918
-0.03273526579141617
-0.0914924219250679
-0.15028908848762512
-0.20795181393623352
-0.2631972134113312
-0.31468573212623596
-0.36109957098960876
-0.40122243762016296
-0.4340139329433441
-0.4586820900440216
-0.4747219979763031
-0.4819311797618866
-0.48039355874061584
-0.4704344570636749
-0.4525790512561798
-0.4274939298629761
-0.3959430158138275
-0.35874778032302856
-0.31674906611442566
-0.27076858282089233
-0.22157934308052063
-0.16987666487693787
-0.11626545339822769
-0.061263345181941986
-0.0053276196122169495
0.05109991878271103
0.10753294080495834
0.16337722539901733
0.21788519620895386
0.270132839679718
0.31903454661369324
0.36340418457984924
0.40203598141670227
0.43381649255752563
0.4578132927417755
0.473368763923645
0.4801437556743622
0.47813937067985535
0.36374786496162415
0.3475531339645386
0.3245851695537567
0.29679417610168457
0.26609382033348083
0.23407629132270813
0.2018257975578308
0.16986507177352905
0.13821199536323547
0.10650318115949631
0.07415636628866196
0.040534280240535736
0.005091778934001923
-0.03249923139810562
-0.07225731760263443
-0.11383233219385147
-0.1564824879169464
-0.19910064339637756
-0.24028471112251282
-0.2784568965435028
-0.31201401352882385
-0.33949318528175354
-0.3597217798233032
-0.37194570899009705
-0.3758995831012726
-0.37180861830711365
-0.3603360950946808
-0.3424611985683441
-0.3193303644657135
-0.2920864522457123
-0.26172876358032227
-0.22901085019111633
-0.19440457224845886
-0.1581224501132965
-0.12019128352403641
-0.08055049926042557
-0.039159245789051056
0.0038975849747657776
0.048336319625377655
0.09361749142408371
0.13892561197280884
0.18318328261375427
0.22509250044822693
0.26322701573371887
0.2961495816707611
0.322570264339447
0.34151944518089294
0.3525027334690094
0.35559478402137756
0.3514377772808075
0.34110796451568604
0.3258906602859497
0.3070090115070343
0.28539568185806274
0.26157113909721375
0.23564350605010986
0.20741334557533264
0.17653673887252808
0.14269179105758667
0.10571067780256271
0.06566420942544937
0.022892557084560394
-0.022000320255756378
-0.06817836314439774
-0.11462295800447464
-0.16018718481063843
-0.2036677896976471
-0.24386721849441528
-0.27967569231987
-0.31013187766075134
-0.3344862163066864
-0.35222670435905457
-0.3630947470664978
-0.36706578731536865
-0.36431828141212463
-0.3551991283893585
-0.340182363986969
-0.31984496116638184
-0.2948392331600189
-0.2658652365207672
-0.23363757133483887
-0.19884487986564636
-0.16211405396461487
-0.12396963685750961
-0.08481673151254654
-0.04494055360555649
-0.004526831209659576
0.03628521412611008
0.0773434266448021
0.11840573698282242
0.15907633304595947
0.19875866174697876
0.23664367198944092
0.2717422544956207
0.3029559552669525
0.32917818427085876
0.3494027554988861
0.3628373146057129
0.3689767122268677
0.3676590919494629
0.23125028610229492
0.21554473042488098
0.19664186239242554
0.17633837461471558
0.15609601140022278
0.13686081767082214
0.11900915950536728