# vtk DataFile Version 3.0
2D PINN Solution
ASCII
DATASET STRUCTURED_GRID
DIMENSIONS 100 100 1
POINTS 10000 float
-1.0 -1.0 0.0
-0.9797979797979798 -1.0 0.0
-0.9595959595959596 -1.0 0.0
-0.9393939393939394 -1.0 0.0
-0.9191919191919192 -1.0 0.0
-0.898989898989899 -1.0 0.0
-0.8787878787878788 -1.0 0.0
-0.8585858585858586 -1.0 0.0
-0.8383838383838383 -1.0 0.0
-0.8181818181818181 -1.0 0.0
-0.797979797979798 -1.0 0.0
-0.7777777777777778 -1.0 0.0
-0.7575757575757576 -1.0 0.0
-0.7373737373737373 -1.0 0.0
-0.7171717171717171 -1.0 0.0
-0.696969696969697 -1.0 0.0
-0.6767676767676767 -1.0 0.0
-0.6565656565656566 -1.0 0.0
-0.6363636363636364 -1.0 0.0
-0.6161616161616161 -1.0 0.0
-0.5959595959595959 -1.0 0.0
-0.5757575757575757 -1.0 0.0
-0.5555555555555556 -1.0 0.0
-0.5353535353535352 -1.0 0.0
-0.5151515151515151 -1.0 0.0
-0.4949494949494949 -1.0 0.0
-0.4747474747474747 -1.0 0.0
-0.4545454545454545 -1.0 0.0
-0.43434343434343425 -1.0 0.0
-0.41414141414141414 -1.0 0.0
-0.3939393939393939 -1.0 0.0
-0.3737373737373737 -1.0 0.0
-0.3535353535353535 -1.0 0.0
-0.33333333333333326 -1.0 0.0
-0.31313131313131304 -1.0 0.0
-0.2929292929292928 -1.0 0.0
-0.2727272727272727 -1.0 0.0
-0.2525252525252525 -1.0 0.0
-0.23232323232323226 -1.0 0.0
-0.21212121212121204 -1.0 0.0
-0.19191919191919182 -1.0 0.0
-0.1717171717171716 -1.0 0.0
-0.1515151515151515 -1.0 0.0
-0.13131313131313127 -1.0 0.0
-0.11111111111111105 -1.0 0.0
-0.09090909090909083 -1.0 0.0
-0.07070707070707061 -1.0 0.0
-0.050505050505050386 -1.0 0.0
-0.030303030303030276 -1.0 0.0
-0.010101010101010055 -1.0 0.0
0.010101010101010166 -1.0 0.0
0.030303030303030498 -1.0 0.0
0.05050505050505061 -1.0 0.0
0.07070707070707072 -1.0 0.0
0.09090909090909105 -1.0 0.0
0.11111111111111116 -1.0 0.0
0.1313131313131315 -1.0 0.0
0.1515151515151516 -1.0 0.0
0.1717171717171717 -1.0 0.0
0.19191919191919204 -1.0 0.0
0.21212121212121215 -1.0 0.0
0.2323232323232325 -1.0 0.0
0.2525252525252526 -1.0 0.0
0.27272727272727293 -1.0 0.0
0.29292929292929304 -1.0 0.0
0.31313131313131315 -1.0 0.0
0.3333333333333335 -1.0 0.0
0.3535353535353536 -1.0 0.0
0.3737373737373739 -1.0 0.0
0.39393939393939403 -1.0 0.0
0.41414141414141437 -1.0 0.0
0.4343434343434345 -1.0 0.0
0.4545454545454546 -1.0 0.0
0.4747474747474749 -1.0 0.0
0.49494949494949503 -1.0 0.0
0.5151515151515154 -1.0 0.0
0.5353535353535355 -1.0 0.0
0.5555555555555556 -1.0 0.0
0.5757575757575759 -1.0 0.0
0.595959595959596 -1.0 0.0
0.6161616161616164 -1.0 0.0
0.6363636363636365 -1.0 0.0
0.6565656565656568 -1.0 0.0
0.6767676767676769 -1.0 0.0
0.696969696969697 -1.0 0.0
0.7171717171717173 -1.0 0.0
0.7373737373737375 -1.0 0.0
0.7575757575757578 -1.0 0.0
0.7777777777777779 -1.0 0.0
0.7979797979797982 -1.0 0.0
0.8181818181818183 -1.0 0.0
0.8383838383838385 -1.0 0.0
0.8585858585858588 -1.0 0.0
0.8787878787878789 -1.0 0.0
0.8989898989898992 -1.0 0.0
0.9191919191919193 -1.0 0.0
0.9393939393939394 -1.0 0.0
0.9595959595959598 -1.0 0.0
0.9797979797979799 -1.0 0.0
1.0 -1.0 0.0
-1.0 -0.9797979797979798 0.0
-0.9797979797979798 -0.9797979797979798 0.0
-0.9595959595959596 -0.9797979797979798 0.0
-0.9393939393939394 -0.9797979797979798 0.0
-0.9191919191919192 -0.9797979797979798 0.0
-0.898989898989899 -0.9797979797979798 0.0
-0.8787878787878788 -0.9797979797979798 0.0
-0.8585858585858586 -0.9797979797979798 0.0
-0.8383838383838383 -0.9797979797979798 0.0
-0.8181818181818181 -0.9797979797979798 0.0
-0.797979797979798 -0.9797979797979798 0.0
-0.7777777777777778 -0.9797979797979798 0.0
-0.7575757575757576 -0.9797979797979798 0.0
-0.7373737373737373 -0.9797979797979798 0.0
-0.7171717171717171 -0.9797979797979798 0.0
-0.696969696969697 -0.9797979797979798 0.0
-0.6767676767676767 -0.9797979797979798 0.0
-0.6565656565656566 -0.9797979797979798 0.0
-0.6363636363636364 -0.9797979797979798 0.0
-0.6161616161616161 -0.9797979797979798 0.0
-0.5959595959595959 -0.9797979797979798 0.0
-0.5757575757575757 -0.9797979797979798 0.0
-0.5555555555555556 -0.9797979797979798 0.0
-0.5353535353535352 -0.9797979797979798 0.0
-0.5151515151515151 -0.9797979797979798 0.0
-0.4949494949494949 -0.9797979797979798 0.0
-0.4747474747474747 -0.9797979797979798 0.0
-0.4545454545454545 -0.9797979797979798 0.0
-0.43434343434343425 -0.9797979797979798 0.0
-0.41414141414141414 -0.9797979797979798 0.0
-0.3939393939393939 -0.9797979797979798 0.0
-0.3737373737373737 -0.9797979797979798 0.0
-0.3535353535353535 -0.9797979797979798 0.0
-0.33333333333333326 -0.9797979797979798 0.0
-0.31313131313131304 -0.9797979797979798 0.0
-0.2929292929292928 -0.9797979797979798 0.0
-0.2727272727272727 -0.9797979797979798 0.0
-0.2525252525252525 -0.9797979797979798 0.0
-0.23232323232323226 -0.9797979797979798 0.0
-0.21212121212121204 -0.9797979797979798 0.0
-0.19191919191919182 -0.9797979797979798 0.0
-0.1717171717171716 -0.9797979797979798 0.0
-0.1515151515151515 -0.9797979797979798 0.0
-0.13131313131313127 -0.9797979797979798 0.0
-0.11111111111111105 -0.9797979797979798 0.0
-0.09090909090909083 -0.9797979797979798 0.0
-0.07070707070707061 -0.9797979797979798 0.0
-0.050505050505050386 -0.9797979797979798 0.0
-0.030303030303030276 -0.9797979797979798 0.0
-0.010101010101010055 -0.9797979797979798 0.0
0.010101010101010166 -0.9797979797979798 0.0
0.030303030303030498 -0.9797979797979798 0.0
0.05050505050505061 -0.9797979797979798 0.0
0.07070707070707072 -0.9797979797979798 0.0
0.09090909090909105 -0.9797979797979798 0.0
0.11111111111111116 -0.9797979797979798 0.0
0.1313131313131315 -0.9797979797979798 0.0
0.1515151515151516 -0.9797979797979798 0.0
0.1717171717171717 -0.9797979797979798 0.0
0.19191919191919204 -0.9797979797979798 0.0
0.21212121212121215 -0.9797979797979798 0.0
0.2323232323232325 -0.9797979797979798 0.0
0.2525252525252526 -0.9797979797979798 0.0
0.27272727272727293 -0.9797979797979798 0.0
0.29292929292929304 -0.9797979797979798 0.0
0.31313131313131315 -0.9797979797979798 0.0
0.3333333333333335 -0.9797979797979798 0.0
0.3535353535353536 -0.9797979797979798 0.0
0.3737373737373739 -0.9797979797979798 0.0
0.39393939393939403 -0.9797979797979798 0.0
0.41414141414141437 -0.9797979797979798 0.0
0.4343434343434345 -0.9797979797979798 0.0
0.4545454545454546 -0.9797979797979798 0.0
0.4747474747474749 -0.9797979797979798 0.0
0.49494949494949503 -0.9797979797979798 0.0
0.5151515151515154 -0.9797979797979798 0.0
0.5353535353535355 -0.9797979797979798 0.0
0.5555555555555556 -0.9797979797979798 0.0
0.5757575757575759 -0.9797979797979798 0.0
0.595959595959596 -0.9797979797979798 0.0
0.6161616161616164 -0.9797979797979798 0.0
0.6363636363636365 -0.9797979797979798 0.0
0.6565656565656568 -0.9797979797979798 0.0
0.6767676767676769 -0.9797979797979798 0.0
0.696969696969697 -0.9797979797979798 0.0
0.7171717171717173 -0.9797979797979798 0.0
0.7373737373737375 -0.9797979797979798 0.0
0.7575757575757578 -0.9797979797979798 0.0
0.7777777777777779 -0.9797979797979798 0.0
0.7979797979797982 -0.9797979797979798 0.0
0.8181818181818183 -0.9797979797979798 0.0
0.8383838383838385 -0.9797979797979798 0.0
0.8585858585858588 -0.9797979797979798 0.0
0.8787878787878789 -0.9797979797979798 0.0
0.8989898989898992 -0.9797979797979798 0.0
0.9191919191919193 -0.9797979797979798 0.0
0.9393939393939394 -0.9797979797979798 0.0
0.9595959595959598 -0.9797979797979798 0.0
0.9797979797979799 -0.9797979797979798 0.0
1.0 -0.9797979797979798 0.0
-1.0 -0.9595959595959596 0.0
-0.9797979797979798 -0.9595959595959596 0.0
-0.9595959595959596 -0.9595959595959596 0.0
-0.9393939393939394 -0.9595959595959596 0.0
-0.9191919191919192 -0.9595959595959596 0.0
-0.898989898989899 -0.9595959595959596 0.0
-0.8787878787878788 -0.9595959595959596 0.0
-0.8585858585858586 -0.9595959595959596 0.0
-0.8383838383838383 -0.9595959595959596 0.0
-0.8181818181818181 -0.9595959595959596 0.0
-0.797979797979798 -0.9595959595959596 0.0
-0.7777777777777778 -0.9595959595959596 0.0
-0.7575757575757576 -0.9595959595959596 0.0
-0.7373737373737373 -0.9595959595959596 0.0
-0.7171717171717171 -0.9595959595959596 0.0
-0.696969696969697 -0.9595959595959596 0.0
-0.6767676767676767 -0.9595959595959596 0.0
-0.6565656565656566 -0.9595959595959596 0.0
-0.6363636363636364 -0.9595959595959596 0.0
-0.6161616161616161 -0.9595959595959596 0.0
-0.5959595959595959 -0.9595959595959596 0.0
-0.5757575757575757 -0.9595959595959596 0.0
-0.5555555555555556 -0.9595959595959596 0.0
-0.5353535353535352 -0.9595959595959596 0.0
-0.5151515151515151 -0.9595959595959596 0.0
-0.4949494949494949 -0.9595959595959596 0.0
-0.4747474747474747 -0.9595959595959596 0.0
-0.4545454545454545 -0.9595959595959596 0.0
-0.43434343434343425 -0.9595959595959596 0.0
-0.41414141414141414 -0.9595959595959596 0.0
-0.3939393939393939 -0.9595959595959596 0.0
-0.3737373737373737 -0.9595959595959596 0.0
-0.3535353535353535 -0.9595959595959596 0.0
-0.33333333333333326 -0.9595959595959596 0.0
-0.31313131313131304 -0.9595959595959596 0.0
-0.2929292929292928 -0.9595959595959596 0.0
-0.2727272727272727 -0.9595959595959596 0.0
-0.2525252525252525 -0.9595959595959596 0.0
-0.23232323232323226 -0.9595959595959596 0.0
-0.21212121212121204 -0.9595959595959596 0.0
-0.19191919191919182 -0.9595959595959596 0.0
-0.1717171717171716 -0.9595959595959596 0.0
-0.1515151515151515 -0.9595959595959596 0.0
-0.13131313131313127 -0.9595959595959596 0.0
-0.11111111111111105 -0.9595959595959596 0.0
-0.09090909090909083 -0.9595959595959596 0.0
-0.07070707070707061 -0.9595959595959596 0.0
-0.050505050505050386 -0.9595959595959596 0.0
-0.030303030303030276 -0.9595959595959596 0.0
-0.010101010101010055 -0.9595959595959596 0.0
0.010101010101010166 -0.9595959595959596 0.0
0.030303030303030498 -0.9595959595959596 0.0
0.05050505050505061 -0.9595959595959596 0.0
0.07070707070707072 -0.9595959595959596 0.0
0.09090909090909105 -0.9595959595959596 0.0
0.11111111111111116 -0.9595959595959596 0.0
0.1313131313131315 -0.9595959595959596 0.0
0.1515151515151516 -0.9595959595959596 0.0
0.1717171717171717 -0.9595959595959596 0.0
0.19191919191919204 -0.9595959595959596 0.0
0.21212121212121215 -0.9595959595959596 0.0
[...]
POINT_DATA 10000
SCALARS u float 1
LOOKUP_TABLE default
0.7230225205421448
0.655967652797699
0.5771544575691223
0.4886800944805145
0.3928799629211426
0.2920999825000763
0.18848484754562378
0.08384522050619125
-0.020372875034809113
-0.12303564697504044
-0.22319144010543823
-0.31993943452835083
-0.4123229384422302
-0.49926891922950745
-0.5795812606811523
-0.6519783139228821
-0.7151411175727844
-0.7677761912345886
-0.8086634278297424
-0.8367105722427368
-0.851014256477356
-0.8509259819984436
-0.836133599281311
-0.8067319989204407
-0.7632681131362915
-0.7067344784736633
-0.6384928226470947
-0.5601326823234558
-0.4733099043369293
-0.3796255588531494
-0.2805580198764801
-0.1774958074092865
-0.07180330902338028
0.03509507328271866
0.14165331423282623
0.24619081616401672
0.3469196856021881
0.4420126974582672
0.5296977758407593
0.6083491444587708
0.676569402217865
0.7332502007484436
0.7775957584381104
0.8091228604316711
0.8276315927505493
0.8331670165061951
0.8259615898132324
0.8063884377479553
0.7749118208885193
0.7320569157600403
0.6783897280693054
0.6145145297050476
0.541088342666626
0.4588508605957031
0.36865881085395813
0.27153363823890686
0.16869446635246277
0.06160146743059158
-0.04802644997835159
-0.15821126103401184
-0.2667537331581116
-0.3713018596172333
-0.4694722592830658
-0.5589997172355652
-0.6379052996635437
-0.7046449780464172
-0.758195161819458
-0.798055112361908
-0.8241786360740662
-0.8368486762046814
-0.8365491628646851
-0.823847770690918
-0.7993214726448059
-0.7635066509246826
-0.7168942093849182
-0.6599426865577698
-0.5931243896484375
-0.5169710516929626
-0.43215295672416687
-0.33953866362571716
-0.2402592897415161
-0.13574963808059692
-0.027752242982387543
0.08171207457780838
0.19042453169822693
0.2960752546787262
0.396394282579422
0.4892796277999878
0.5729118585586548
0.6458226442337036
0.706946074962616
0.7556168437004089
0.7915551066398621
0.8148400187492371
0.8258646130561829
0.8253090977668762
0.814105749130249
0.7934144139289856
0.7645946145057678
0.7291697859764099
0.660172700881958
0.5963003635406494
0.5220813751220703
0.4398609399795532
0.35204559564590454
0.26083728671073914
0.16803690791130066
0.07497411221265793
-0.017454423010349274
-0.10864780098199844
-0.19812360405921936
-0.28533998131752014
-0.36956557631492615
-0.44981005787849426
-0.5248294472694397
-0.5931779146194458
-0.6532973647117615
-0.7036239504814148
-0.742694616317749
-0.769244372844696
-0.7823053002357483
-0.781304657459259
-0.7661400437355042
-0.7372202277183533
-0.6954512596130371
-0.6421346068382263
-0.5788123607635498
-0.5070738196372986
-0.42839714884757996
-0.3440695106983185
-0.25520309805870056
-0.162817120552063
-0.06794814020395279
0.028260163962841034
0.1245029866695404
0.21930912137031555
0.3110769987106323
0.3981397747993469
0.47885361313819885
0.5516752600669861
0.6152427196502686
0.6684302687644958
0.7103791832923889
0.7405140995979309
0.7585247755050659
0.7643457055091858
0.758121907711029
0.7401679158210754
0.7109301090240479
0.6709556579589844
0.620867133140564
0.5613483786582947
0.49314138293266296
0.41705891489982605
0.33400318026542664
0.24499091506004333
0.15117913484573364
0.05388977378606796
-0.04537924379110336
-0.14494985342025757
-0.24298402667045593
-0.33751851320266724
-0.42653319239616394
-0.5080495476722717
-0.5802466869354248
-0.6416037678718567
-0.6910091042518616
-0.7278217673301697
-0.751863420009613
-0.7633302211761475
-0.7626782059669495
-0.7505064606666565
-0.7274537086486816
-0.694143533706665
-0.651150643825531
-0.5990020632743835
-0.5382006764411926
-0.46926501393318176
-0.3927760720252991
-0.3094403147697449
-0.22014644742012024
-0.12601399421691895
-0.028423763811588287
0.07097426801919937
0.17029589414596558
0.2674891948699951
0.36043229699134827
0.447052925825119
0.5254453420639038
0.5939806699752808
0.6513808369636536
0.6967664361000061
0.729675829410553
0.7500574588775635
0.758238673210144
0.7549083232879639
0.7410655617713928
0.7179858088493347
0.6871727705001831
0.6503089666366577
0.585751473903656
0.5266117453575134
0.4588410556316376
0.38484808802604675
0.30691638588905334
0.22695264220237732
0.14634791016578674
0.06596346944570541
-0.013763435184955597
-0.09264684468507767
-0.17055240273475647
-0.24721017479896545
-0.3220779001712799
-0.3942623734474182
-0.46251794695854187
-0.5253100991249084
-0.5809274315834045
-0.6276244521141052
-0.663776159286499
-0.6880233287811279
-0.6994146704673767
-0.6975073218345642
-0.6824339032173157
-0.6548934578895569
-0.6160628795623779
-0.5674243569374084
-0.5105493068695068
-0.4468946158885956
-0.37768980860710144
-0.3039064109325409
-0.22634032368659973
-0.1457214057445526
-0.06283115595579147
0.02141936868429184
0.10594996064901352
0.18952012062072754
0.2707614004611969
0.34823331236839294
0.4204840660095215
0.4861212968826294
0.5438683032989502
0.5926194787025452
0.6314787268638611
0.6597781777381897
0.677094042301178
0.6832321882247925
0.6782206296920776
0.6622841358184814
0.6358233094215393
0.5993793606758118
0.5536155700683594
0.4992901384830475
0.43723252415657043
0.368338942527771
0.29356324672698975
0.21392527222633362
0.13051524758338928
0.04450944811105728
-0.042825497686862946
-0.13012275099754333
-0.21592310070991516
-0.2986830174922943
-0.37680283188819885
-0.44867071509361267
-0.512729823589325
-0.5675757527351379
-0.6120716333389282
-0.6454436182975769
-0.667332112789154
-0.6777743697166443
-0.6771214604377747
-0.6659367680549622
-0.6448827385902405
-0.6146420836448669
-0.5758692622184753
-0.5291668176651001
-0.4750891625881195
-0.41416051983833313
-0.34691134095191956
-0.2739153206348419
-0.19584697484970093
-0.11352621763944626
-0.027970634400844574
0.05956722050905228
0.1475948691368103
0.2343955934047699
0.3180905878543854
0.39673009514808655
0.46841302514076233
0.5314061045646667
0.5842583775520325
0.625887393951416
0.6556370854377747
0.6732987761497498
0.6791085600852966
0.6737212538719177
0.6581676602363586
0.6337999105453491
0.6022290587425232
0.5652593374252319
0.5011549592018127
0.4484899342060089
0.3890763819217682
0.3251657783985138
0.2587377429008484
0.19130226969718933
0.12382619827985764
0.05678202956914902
-0.009725399315357208
-0.07578114420175552
-0.14146721363067627
-0.20669469237327576
-0.27106621861457825
-0.3338029086589813
-0.39372169971466064
-0.4493025243282318
-0.49880310893058777
-0.5404282212257385
-0.5725166201591492
-0.5937276482582092
-0.6031994819641113
-0.6006558537483215
-0.5864344239234924
-0.561428427696228
-0.5269326567649841
-0.48442742228507996
-0.43535494804382324
-0.3809499144554138
-0.3221755027770996
-0.2597450613975525
-0.19422954320907593
-0.1261642575263977
-0.05615060776472092
0.015090428292751312
0.08670135587453842
0.1576944887638092
0.2269805371761322
0.2933988869190216
0.3557575047016144
0.4128701984882355
0.46360233426094055
0.5069106221199036
0.5418913960456848
0.5678102374076843
0.5841317772865295
0.5905366539955139
0.5869200825691223
0.5733996033668518
0.5502957701683044
0.518116295337677
0.47753381729125977
0.42934897541999817
0.3744625151157379
0.3138383626937866
0.24847492575645447
0.17938613891601562
0.1075921580195427
0.03411451727151871
-0.040013156831264496
-0.11373607069253922
-0.18596959114074707
-0.25558778643608093
-0.3214217722415924
-0.38226258754730225
-0.43688610196113586
-0.48410192131996155
-0.5228360295295715
-0.552237331867218
-0.5717748403549194
-0.5812813639640808
-0.5809388756752014
-0.5712013244628906
-0.5526962876319885
-0.5261290669441223
-0.49221041798591614
-0.4516114294528961
-0.4049411118030548
-0.35274699330329895
-0.2955252528190613
-0.23374679684638977
-0.16789942979812622
-0.09853560477495193
-0.026329003274440765
0.047865502536296844
0.12296611815690994
0.19764193892478943
0.27033093571662903
0.339304119348526
0.4027568995952606
0.4589403569698334
0.5062960982322693
0.5435776710510254
0.5699433088302612
0.585019052028656
0.5889156460762024
0.5822165608406067
0.5659376978874207
0.5414553880691528
0.5104429125785828
0.47477179765701294
0.408070832490921
0.36366692185401917
0.3144044876098633
0.2621758282184601
0.20851722359657288
0.15449568629264832
0.10069941729307175
0.04731439799070358
-0.005745299160480499
-0.05869100242853165
-0.11169681698083878
-0.1647622287273407
-0.21759483218193054
-0.2695348560810089
-0.3195355236530304
-0.36620497703552246
-0.40792322158813477
-0.4430127441883087
-0.4699340760707855
-0.4874924123287201
-0.4949885308742523
-0.49230536818504333
-0.4799012243747711
-0.4587037265300751
-0.42992910742759705
-0.3948703110218048
-0.35471174120903015
-0.31041809916496277
-0.262721449136734
-0.21216103434562683
-0.15918609499931335
-0.10423041135072708
-0.047774992883205414
0.009622015058994293
0.06732360273599625
0.1246158704161644
0.18071871995925903
0.23479589819908142
0.28595900535583496
0.33328309655189514
0.37582340836524963
0.41265276074409485
0.44289878010749817
0.4657942056655884
0.4807177186012268
0.4872343838214874
0.48511767387390137
0.4743638038635254
0.4551953375339508
0.4280548095703125
0.3935789167881012
0.35257014632225037
0.30595216155052185
0.2547186017036438
0.19988346099853516
0.14243537187576294
0.08331090956926346
0.02337784320116043
-0.03656219691038132
-0.09575308114290237
-0.15346455574035645
-0.20896399021148682
-0.2614923119544983
-0.31024378538131714
-0.3543540835380554
-0.39291369915008545
-0.4250068962574005
-0.4497986137866974
-0.46664097905158997
-0.47516992688179016
-0.4753548800945282
-0.4674782454967499
-0.4520670473575592
-0.4297921061515808
-0.40138348937034607
-0.36755651235580444
-0.32896384596824646
-0.2861730754375458
-0.2396591603755951
-0.18980959057807922
-0.1369522213935852
-0.08140627294778824
-0.023537613451480865
0.0361671969294548
0.0970279648900032
0.15812191367149353
0.21825477480888367
0.275990754365921
0.32972243428230286
0.3777855336666107
0.4186047613620758
0.4508335590362549
0.47348350286483765
0.4860209822654724
0.48841139674186707
0.48112785816192627
0.4651166498661041
0.4417254328727722
0.41261863708496094
0.37968483567237854
0.30838361382484436
0.2738860547542572
0.23629719018936157
0.1969882845878601
0.15698030591011047
0.11690475791692734
0.07704301923513412
0.03740840405225754
-0.002152837812900543
-0.041851021349430084
-0.08184660226106644
-0.12214923650026321
-0.16252627968788147
-0.2024453580379486
-0.24105307459831238
-0.2772056758403778
-0.30956700444221497
-0.336759090423584
-0.3575439453125
-0.3709929585456848
-0.3766193091869354
-0.3744232654571533
-0.3648488521575928
-0.3486713469028473
-0.32683053612709045
-0.3002801239490509
-0.26986727118492126
-0.236285001039505
-0.20008814334869385
-0.16173285245895386
-0.12162790447473526
-0.08017375320196152
-0.037773989140987396
0.005158759653568268
0.04820465296506882
0.09093036502599716
0.13288378715515137
0.17356935143470764
0.2124325931072235
0.24884432554244995
0.2820977568626404
0.3114296495914459
0.33605438470840454
0.3552161157131195
0.3682476282119751
0.37462660670280457
0.37401729822158813
0.36630019545555115
0.3515915870666504
0.33023735880851746
0.3028009235858917
0.2700284421443939
0.23280343413352966
0.19208964705467224
0.14886346459388733
0.10405652970075607
0.058501385152339935
0.012910731136798859
-0.032129593193531036
-0.07614143937826157
-0.11871608346700668
-0.15947851538658142
-0.19804120063781738
-0.2339734435081482
-0.26676830649375916
-0.29582393169403076
-0.3204602003097534
-0.3399527370929718
-0.3536320626735687
-0.3609914779663086
-0.3617912232875824
-0.35609981417655945
-0.34427741169929504
-0.32689711451530457
-0.30465057492256165
-0.27825602889060974
-0.2483862340450287
-0.21561408042907715
-0.18038862943649292
-0.1430230438709259
-0.10371480137109756
-0.06258384138345718
-0.019729919731616974
0.02468312531709671
0.07034613937139511
0.1167294904589653
0.1630287766456604
0.20815929770469666
0.25079506635665894
0.2894592583179474
0.322660893201828
0.34904634952545166
0.36754146218299866
0.377479612827301
0.37867775559425354
0.37146827578544617
0.3566727340221405
0.3355437219142914
0.30967947840690613
0.2809087634086609
0.20405519008636475
0.18079471588134766
0.15599778294563293
0.13043269515037537
0.10458778589963913
0.07870360463857651
0.052834682166576385
0.026917628943920135
0.0008304044604301453
-0.025549359619617462
-0.052288301289081573
-0.07934249192476273
-0.10650733858346939
-0.13338026404380798
-0.15935173630714417
-0.1836300790309906
-0.20531350374221802
-0.22349807620048523
-0.23739740252494812
-0.24645903706550598
-0.25042203068733215
-0.24932435154914856
-0.24345386028289795
-0.233255535364151
-0.21924984455108643
-0.20195272564888
-0.18184685707092285
-0.15937763452529907
-0.13497623801231384
-0.10907066613435745
-0.08208376914262772
-0.05441310256719589
-0.02640926092863083
0.0016473159193992615
0.02954704314470291
0.057131655514240265
0.08426763862371445
0.11080067604780197
0.1365153193473816
0.1610969603061676
0.18411412835121155
0.2050144374370575
0.22315555810928345
0.23785185813903809
0.24844136834144592
0.25435248017311096
0.2551651895046234
0.25066009163856506
0.24083766341209412
0.2259322702884674
0.20639145374298096
0.18285220861434937
0.1560913622379303
0.12696942687034607
0.09635923057794571
0.06508297473192215
0.033845774829387665
0.0031997188925743103
-0.026469014585018158
-0.054923929274082184
-0.08204128593206406
-0.10775699466466904
-0.1320141851902008
-0.1547163426876068
-0.1756848692893982
-0.19463136792182922
-0.2111409604549408
-0.22468483448028564
-0.23467019200325012
-0.24053964018821716
-0.24189212918281555
-0.2385798990726471
-0.23074719309806824
-0.21880027651786804
-0.2033282220363617
-0.18499398231506348
-0.16444644331932068
-0.14223942160606384
-0.11878105252981186
-0.09431473165750504
-0.06892368942499161
-0.04255983978509903
-0.015108384191989899
0.013539843261241913
0.04339864104986191
0.07429753988981247
0.10581580549478531
0.13724786043167114
0.16761153936386108
0.19571271538734436
0.22025004029273987
0.23996073007583618
0.25377121567726135
0.26093292236328125
0.2611304521560669
0.25453490018844604
0.24180254340171814
0.22403192520141602
0.20267418026924133
0.17943230271339417
0.09702738374471664
0.08587353676557541
0.07451405376195908
0.06309216469526291
0.051596008241176605
0.03993683308362961
0.028010807931423187
0.015741996467113495
0.0030991360545158386
-0.009897567331790924
-0.023176319897174835
-0.0366046205163002
-0.049985893070697784
-0.06305644661188126
-0.0754922404885292
-0.08693567663431168
-0.09703133255243301
-0.10547483712434769
-0.11204413324594498
-0.11660981923341751
-0.11912200599908829
-0.1195724681019783
-0.1179691031575203
-0.11432253569364548
-0.1086510643362999
-0.10101170092821121
-0.09153161197900772
-0.08043967932462692
-0.06806761771440506
-0.054831989109516144
-0.041173435747623444
-0.027493812143802643
-0.01409093290567398
-0.001121722161769867
0.011396132409572601
0.02355777472257614
0.0355243906378746
0.04746104031801224
0.05947764962911606
0.07157633453607559
0.08361836522817612
0.09530485421419144
0.1061917319893837
0.11572682112455368
0.12331191450357437
0.12837663292884827
0.13045448064804077
0.12923359870910645
0.12460560351610184
0.11667143553495407
0.10573319345712662
0.09227132052183151
0.07689455896615982
0.06029050797224045
0.04316330701112747
0.026163317263126373
0.009833104908466339
-0.005445368587970734
-0.0194706991314888
-0.03221631795167923
-0.04379918426275253
-0.05441821366548538
-0.06430128961801529
-0.0736435130238533
-0.08256048709154129
-0.09105359762907028
-0.09898219257593155
-0.10605301707983017
-0.11183442920446396
-0.11581913381814957
-0.1175292357802391
-0.11663634330034256
-0.11305695027112961
-0.10697505623102188
-0.09880160540342331
-0.08908203989267349
-0.07838239520788193
-0.0671965703368187
-0.05587368458509445
-0.04458055645227432
-0.03329584747552872
-0.021838434040546417
-0.009917758405208588
0.0027928873896598816
0.01657230406999588
0.03156545013189316
0.04770829528570175
0.06467535346746445
0.08186656981706619
0.09843716770410538
0.11337210983037949
0.12560424208641052
0.13414913415908813
0.13825255632400513
0.13750550150871277
0.13191795349121094
0.12195288389921188
0.10849324613809586
0.09278246015310287
0.07631256431341171
-0.010856635868549347
-0.009571559727191925
-0.007346697151660919
-0.004623688757419586
-0.0018558278679847717
0.0005958005785942078
0.0025133714079856873
0.0038406774401664734
0.004656367003917694
0.005135081708431244
0.005497686564922333
0.005967549979686737
0.0067295655608177185
0.007893018424510956
0.009460173547267914
0.01130860298871994
0.013185523450374603
0.014743112027645111
0.015613697469234467
0.015508972108364105
0.014316163957118988
0.012151800096035004
0.009335719048976898
0.006322868168354034
0.0035823211073875427
0.0014866366982460022
0.00022964924573898315
-0.0002114996314048767
-6.713718175888062e-05
0.0002868250012397766
0.00042235106229782104
-3.1925737857818604e-05
-0.0013105496764183044
-0.003457598388195038
-0.006319306790828705
-0.009581230580806732
-0.012826032936573029
-0.015607662498950958
-0.0175178125500679
-0.01825263351202011
-0.017654605209827423
-0.015744812786579132
-0.012722663581371307
-0.008946560323238373
-0.004886753857135773
-0.0010537877678871155
0.0020736828446388245
0.004119507968425751
0.004860319197177887
0.004250280559062958
0.00241977721452713
-0.00034978240728378296
-0.0036618635058403015
-0.007056154310703278
-0.010057009756565094
-0.012232132256031036
-0.013246886432170868
-0.012906365096569061
-0.011191703379154205
-0.008259020745754242
-0.004422672092914581
-0.00010278075933456421
0.004234872758388519
0.00814395397901535
0.011251084506511688
0.013296045362949371
0.014161430299282074
0.013894550502300262
0.01271899789571762
0.011009521782398224
0.009226314723491669
0.007805131375789642
0.0070347413420677185
0.006978578865528107
0.007463209331035614
0.008137129247188568
0.008577369153499603
0.008401177823543549
0.007348157465457916
0.0053396448493003845
0.002490781247615814
-0.0009049996733665466
-0.0044217780232429504
-0.007562614977359772
-0.009838737547397614
-0.01084042340517044
-0.010317809879779816
-0.008230455219745636
-0.0047895535826683044
-0.00044577568769454956
0.0041396841406822205
0.008185707032680511
0.01089777797460556
0.0115961953997612
0.0098310187458992
0.005482308566570282
-0.0011980906128883362
-0.009574152529239655
-0.018683500587940216
-0.027311868965625763
-0.11788097769021988
-0.10438067466020584
-0.08889708667993546
-0.0723794475197792
-0.05565152317285538
-0.039306916296482086
-0.02365831285715103
-0.008748121559619904
0.005596153438091278
0.01967637985944748
0.03383498638868332
0.048357777297496796
0.06338690966367722
0.0788506492972374
0.09440883249044418
0.10944511741399765
0.12311037629842758
0.13444116711616516
0.14253678917884827
0.14676085114479065
0.14689144492149353
0.14316660165786743
0.13621479272842407
0.12688344717025757
0.11604524403810501
0.10443287342786789
0.09252316504716873
0.0804978683590889
0.06826817244291306
0.05555763095617294
0.042018480598926544
0.02735585719347
0.011427663266658783
-0.0056986138224601746
-0.023724116384983063
-0.04215873032808304
-0.06037520617246628
-0.07768998295068741
-0.09343592077493668
-0.10703418403863907
-0.1180436983704567
-0.12619778513908386
-0.13142377138137817
-0.13384100794792175
-0.13373148441314697
-0.13148945569992065
-0.12755721807479858
-0.12235204130411148
-0.11620441824197769
-0.1093229129910469
-0.10177657753229141
-0.09351012855768204
-0.08437678962945938
-0.07417479902505875
-0.06269321590662003
-0.049757860600948334
-0.035268522799015045
-0.019246019423007965
-0.001856587827205658
0.01657230406999588
0.03555550426244736
0.05449230223894119
0.07271970063447952
0.089577816426754
0.10446985810995102
0.11690560728311539
0.1265367567539215
0.13318172097206116
0.13684245944023132
0.13771724700927734
0.13616728782653809
0.13265186548233032
0.12760472297668457
0.12132775038480759
0.11391853541135788
0.10528404265642166
0.0952136442065239
0.08348479121923447
0.06996295601129532
0.05467214435338974
0.03781928867101669
0.019792817533016205
0.001122303307056427
-0.017566047608852386
-0.03561956435441971