# vtk DataFile Version 3.0
2D PINN Solution
ASCII
DATASET STRUCTURED_GRID
DIMENSIONS 100 100 1
POINTS 10000 float
-1.0 -1.0 0.0
-0.9797979797979798 -1.0 0.0
-0.9595959595959596 -1.0 0.0
-0.9393939393939394 -1.0 0.0
-0.9191919191919192 -1.0 0.0
-0.898989898989899 -1.0 0.0
-0.8787878787878788 -1.0 0.0
-0.8585858585858586 -1.0 0.0
-0.8383838383838383 -1.0 0.0
-0.8181818181818181 -1.0 0.0
-0.797979797979798 -1.0 0.0
-0.7777777777777778 -1.0 0.0
-0.7575757575757576 -1.0 0.0
-0.7373737373737373 -1.0 0.0
-0.7171717171717171 -1.0 0.0
-0.696969696969697 -1.0 0.0
-0.6767676767676767 -1.0 0.0
-0.6565656565656566 -1.0 0.0
-0.6363636363636364 -1.0 0.0
-0.6161616161616161 -1.0 0.0
-0.5959595959595959 -1.0 0.0
-0.5757575757575757 -1.0 0.0
-0.5555555555555556 -1.0 0.0
-0.5353535353535352 -1.0 0.0
-0.5151515151515151 -1.0 0.0
-0.4949494949494949 -1.0 0.0
-0.4747474747474747 -1.0 0.0
-0.4545454545454545 -1.0 0.0
-0.43434343434343425 -1.0 0.0
-0.41414141414141414 -1.0 0.0
-0.3939393939393939 -1.0 0.0
-0.3737373737373737 -1.0 0.0
-0.3535353535353535 -1.0 0.0
-0.33333333333333326 -1.0 0.0
-0.31313131313131304 -1.0 0.0
-0.2929292929292928 -1.0 0.0
-0.2727272727272727 -1.0 0.0
-0.2525252525252525 -1.0 0.0
-0.23232323232323226 -1.0 0.0
-0.21212121212121204 -1.0 0.0
-0.19191919191919182 -1.0 0.0
-0.1717171717171716 -1.0 0.0
-0.1515151515151515 -1.0 0.0
-0.13131313131313127 -1.0 0.0
-0.11111111111111105 -1.0 0.0
-0.09090909090909083 -1.0 0.0
-0.07070707070707061 -1.0 0.0
-0.050505050505050386 -1.0 0.0
-0.030303030303030276 -1.0 0.0
-0.010101010101010055 -1.0 0.0
0.010101010101010166 -1.0 0.0
0.030303030303030498 -1.0 0.0
0.05050505050505061 -1.0 0.0
0.07070707070707072 -1.0 0.0
0.09090909090909105 -1.0 0.0
0.11111111111111116 -1.0 0.0
0.1313131313131315 -1.0 0.0
0.1515151515151516 -1.0 0.0
0.1717171717171717 -1.0 0.0
0.19191919191919204 -1.0 0.0
0.21212121212121215 -1.0 0.0
0.2323232323232325 -1.0 0.0
0.2525252525252526 -1.0 0.0
0.27272727272727293 -1.0 0.0
0.29292929292929304 -1.0 0.0
0.31313131313131315 -1.0 0.0
0.3333333333333335 -1.0 0.0
0.3535353535353536 -1.0 0.0
0.3737373737373739 -1.0 0.0
0.39393939393939403 -1.0 0.0
0.41414141414141437 -1.0 0.0
0.4343434343434345 -1.0 0.0
0.4545454545454546 -1.0 0.0
0.4747474747474749 -1.0 0.0
0.49494949494949503 -1.0 0.0
0.5151515151515154 -1.0 0.0
0.5353535353535355 -1.0 0.0
0.5555555555555556 -1.0 0.0
0.5757575757575759 -1.0 0.0
0.595959595959596 -1.0 0.0
0.6161616161616164 -1.0 0.0
0.6363636363636365 -1.0 0.0
0.6565656565656568 -1.0 0.0
0.6767676767676769 -1.0 0.0
0.696969696969697 -1.0 0.0
0.7171717171717173 -1.0 0.0
0.7373737373737375 -1.0 0.0
0.7575757575757578 -1.0 0.0
0.7777777777777779 -1.0 0.0
0.7979797979797982 -1.0 0.0
0.8181818181818183 -1.0 0.0
0.8383838383838385 -1.0 0.0
0.8585858585858588 -1.0 0.0
0.8787878787878789 -1.0 0.0
0.8989898989898992 -1.0 0.0
0.9191919191919193 -1.0 0.0
0.9393939393939394 -1.0 0.0
0.9595959595959598 -1.0 0.0
0.9797979797979799 -1.0 0.0
1.0 -1.0 0.0
-1.0 -0.9797979797979798 0.0
-0.9797979797979798 -0.9797979797979798 0.0
-0.9595959595959596 -0.9797979797979798 0.0
-0.9393939393939394 -0.9797979797979798 0.0
-0.9191919191919192 -0.9797979797979798 0.0
-0.898989898989899 -0.9797979797979798 0.0
-0.8787878787878788 -0.9797979797979798 0.0
-0.8585858585858586 -0.9797979797979798 0.0
-0.8383838383838383 -0.9797979797979798 0.0
-0.8181818181818181 -0.9797979797979798 0.0
-0.797979797979798 -0.9797979797979798 0.0
-0.7777777777777778 -0.9797979797979798 0.0
-0.7575757575757576 -0.9797979797979798 0.0
-0.7373737373737373 -0.9797979797979798 0.0
-0.7171717171717171 -0.9797979797979798 0.0
-0.696969696969697 -0.9797979797979798 0.0
-0.6767676767676767 -0.9797979797979798 0.0
-0.6565656565656566 -0.9797979797979798 0.0
-0.6363636363636364 -0.9797979797979798 0.0
-0.6161616161616161 -0.9797979797979798 0.0
-0.5959595959595959 -0.9797979797979798 0.0
-0.5757575757575757 -0.9797979797979798 0.0
-0.5555555555555556 -0.9797979797979798 0.0
-0.5353535353535352 -0.9797979797979798 0.0
-0.5151515151515151 -0.9797979797979798 0.0
-0.4949494949494949 -0.9797979797979798 0.0
-0.4747474747474747 -0.9797979797979798 0.0
-0.4545454545454545 -0.9797979797979798 0.0
-0.43434343434343425 -0.9797979797979798 0.0
-0.41414141414141414 -0.9797979797979798 0.0
-0.3939393939393939 -0.9797979797979798 0.0
-0.3737373737373737 -0.9797979797979798 0.0
-0.3535353535353535 -0.9797979797979798 0.0
-0.33333333333333326 -0.9797979797979798 0.0
-0.31313131313131304 -0.9797979797979798 0.0
-0.2929292929292928 -0.9797979797979798 0.0
-0.2727272727272727 -0.9797979797979798 0.0
-0.2525252525252525 -0.9797979797979798 0.0
-0.23232323232323226 -0.9797979797979798 0.0
-0.21212121212121204 -0.9797979797979798 0.0
-0.19191919191919182 -0.9797979797979798 0.0
-0.1717171717171716 -0.9797979797979798 0.0
-0.1515151515151515 -0.9797979797979798 0.0
-0.13131313131313127 -0.9797979797979798 0.0
-0.11111111111111105 -0.9797979797979798 0.0
-0.09090909090909083 -0.9797979797979798 0.0
-0.07070707070707061 -0.9797979797979798 0.0
-0.050505050505050386 -0.9797979797979798 0.0
-0.030303030303030276 -0.9797979797979798 0.0
-0.010101010101010055 -0.9797979797979798 0.0
0.010101010101010166 -0.9797979797979798 0.0
0.030303030303030498 -0.9797979797979798 0.0
0.05050505050505061 -0.9797979797979798 0.0
0.07070707070707072 -0.9797979797979798 0.0
0.09090909090909105 -0.9797979797979798 0.0
0.11111111111111116 -0.9797979797979798 0.0
0.1313131313131315 -0.9797979797979798 0.0
0.1515151515151516 -0.9797979797979798 0.0
0.1717171717171717 -0.9797979797979798 0.0
0.19191919191919204 -0.9797979797979798 0.0
0.21212121212121215 -0.9797979797979798 0.0
0.2323232323232325 -0.9797979797979798 0.0
0.2525252525252526 -0.9797979797979798 0.0
0.27272727272727293 -0.9797979797979798 0.0
0.29292929292929304 -0.9797979797979798 0.0
0.31313131313131315 -0.9797979797979798 0.0
0.3333333333333335 -0.9797979797979798 0.0
0.3535353535353536 -0.9797979797979798 0.0
0.3737373737373739 -0.9797979797979798 0.0
0.39393939393939403 -0.9797979797979798 0.0
0.41414141414141437 -0.9797979797979798 0.0
0.4343434343434345 -0.9797979797979798 0.0
0.4545454545454546 -0.9797979797979798 0.0
0.4747474747474749 -0.9797979797979798 0.0
0.49494949494949503 -0.9797979797979798 0.0
0.5151515151515154 -0.9797979797979798 0.0
0.5353535353535355 -0.9797979797979798 0.0
0.5555555555555556 -0.9797979797979798 0.0
0.5757575757575759 -0.9797979797979798 0.0
0.595959595959596 -0.9797979797979798 0.0
0.6161616161616164 -0.9797979797979798 0.0
0.6363636363636365 -0.9797979797979798 0.0
0.6565656565656568 -0.9797979797979798 0.0
0.6767676767676769 -0.9797979797979798 0.0
0.696969696969697 -0.9797979797979798 0.0
0.7171717171717173 -0.9797979797979798 0.0
0.7373737373737375 -0.9797979797979798 0.0
0.7575757575757578 -0.9797979797979798 0.0
0.7777777777777779 -0.9797979797979798 0.0
0.7979797979797982 -0.9797979797979798 0.0
0.8181818181818183 -0.9797979797979798 0.0
0.8383838383838385 -0.9797979797979798 0.0
0.8585858585858588 -0.9797979797979798 0.0
0.8787878787878789 -0.9797979797979798 0.0
0.8989898989898992 -0.9797979797979798 0.0
0.9191919191919193 -0.9797979797979798 0.0
0.9393939393939394 -0.9797979797979798 0.0
0.9595959595959598 -0.9797979797979798 0.0
0.9797979797979799 -0.9797979797979798 0.0
1.0 -0.9797979797979798 0.0
-1.0 -0.9595959595959596 0.0
-0.9797979797979798 -0.9595959595959596 0.0
-0.9595959595959596 -0.9595959595959596 0.0
-0.9393939393939394 -0.9595959595959596 0.0
-0.9191919191919192 -0.9595959595959596 0.0
-0.898989898989899 -0.9595959595959596 0.0
-0.8787878787878788 -0.9595959595959596 0.0
-0.8585858585858586 -0.9595959595959596 0.0
-0.8383838383838383 -0.9595959595959596 0.0
-0.8181818181818181 -0.9595959595959596 0.0
-0.797979797979798 -0.9595959595959596 0.0
-0.7777777777777778 -0.9595959595959596 0.0
-0.7575757575757576 -0.9595959595959596 0.0
-0.7373737373737373 -0.9595959595959596 0.0
-0.7171717171717171 -0.9595959595959596 0.0
-0.696969696969697 -0.9595959595959596 0.0
-0.6767676767676767 -0.9595959595959596 0.0
-0.6565656565656566 -0.9595959595959596 0.0
-0.6363636363636364 -0.9595959595959596 0.0
-0.6161616161616161 -0.9595959595959596 0.0
-0.5959595959595959 -0.9595959595959596 0.0
-0.5757575757575757 -0.9595959595959596 0.0
-0.5555555555555556 -0.9595959595959596 0.0
-0.5353535353535352 -0.9595959595959596 0.0
-0.5151515151515151 -0.9595959595959596 0.0
-0.4949494949494949 -0.9595959595959596 0.0
-0.4747474747474747 -0.9595959595959596 0.0
-0.4545454545454545 -0.9595959595959596 0.0
-0.43434343434343425 -0.9595959595959596 0.0
-0.41414141414141414 -0.9595959595959596 0.0
-0.3939393939393939 -0.9595959595959596 0.0
-0.3737373737373737 -0.9595959595959596 0.0
-0.3535353535353535 -0.9595959595959596 0.0
-0.33333333333333326 -0.9595959595959596 0.0
-0.31313131313131304 -0.9595959595959596 0.0
-0.2929292929292928 -0.9595959595959596 0.0
-0.2727272727272727 -0.9595959595959596 0.0
-0.2525252525252525 -0.9595959595959596 0.0
-0.23232323232323226 -0.9595959595959596 0.0
-0.21212121212121204 -0.9595959595959596 0.0
-0.19191919191919182 -0.9595959595959596 0.0
-0.1717171717171716 -0.9595959595959596 0.0
-0.1515151515151515 -0.9595959595959596 0.0
-0.13131313131313127 -0.9595959595959596 0.0
-0.11111111111111105 -0.9595959595959596 0.0
-0.09090909090909083 -0.9595959595959596 0.0
-0.07070707070707061 -0.9595959595959596 0.0
-0.050505050505050386 -0.9595959595959596 0.0
-0.030303030303030276 -0.9595959595959596 0.0
-0.010101010101010055 -0.9595959595959596 0.0
0.010101010101010166 -0.9595959595959596 0.0
0.030303030303030498 -0.9595959595959596 0.0
0.05050505050505061 -0.9595959595959596 0.0
0.07070707070707072 -0.9595959595959596 0.0
0.09090909090909105 -0.9595959595959596 0.0
0.11111111111111116 -0.9595959595959596 0.0
0.1313131313131315 -0.9595959595959596 0.0
0.1515151515151516 -0.9595959595959596 0.0
0.1717171717171717 -0.9595959595959596 0.0
0.19191919191919204 -0.9595959595959596 0.0
0.21212121212121215 -0.9595959595959596 0.0
[...]
POINT_DATA 10000
SCALARS u float 1
LOOKUP_TABLE default
0.9430153965950012
0.9124642610549927
0.8634587526321411
0.7958503365516663
0.7102875709533691
0.6083375811576843
0.4924899637699127
0.36601993441581726
0.2327083945274353
0.09648477286100388
-0.03892362862825394
-0.17025595903396606
-0.29485997557640076
-0.4107038378715515
-0.5163161158561707
-0.6106818318367004
-0.6931281089782715
-0.7632341980934143
-0.8207532167434692
-0.8655506372451782
-0.8975631594657898
-0.9167633056640625
-0.923144519329071
-0.9167173504829407
-0.8975199460983276
-0.8656388521194458
-0.821250855922699
-0.764667272567749
-0.6963725686073303
-0.617064893245697
-0.5276775360107422
-0.42937779426574707
-0.32354819774627686
-0.21174925565719604
-0.09567932039499283
0.02286817878484726
0.14203011989593506
0.25990527868270874
0.3745691180229187
0.48410749435424805
0.5866456031799316
0.6803911328315735
0.7636662125587463
0.8349393606185913
0.8928425908088684
0.9361883997917175
0.9639836549758911
0.9754622578620911
0.9701332449913025
0.9478426575660706
0.9088491797447205
0.8538708686828613
0.7841067314147949
0.7011876702308655
0.6070742011070251
0.5039001703262329
0.39381733536720276
0.27886706590652466
0.1609233319759369
0.041684336960315704
-0.07727213948965073
-0.1944172978401184
-0.3082205355167389
-0.41711553931236267
-0.5195242762565613
-0.6138997673988342
-0.6987839341163635
-0.7728675603866577
-0.8350209593772888
-0.8843185305595398
-0.9200351238250732
-0.94163578748703
-0.9487646222114563
-0.9412245154380798
-0.9189745187759399
-0.8821220993995667
-0.8309367299079895
-0.765869140625
-0.6875855326652527
-0.5970093011856079
-0.4953678548336029
-0.38422927260398865
-0.26551946997642517
-0.14150840044021606
-0.014750085771083832
0.11201778799295425
0.23601630330085754
0.3545811176300049
0.46531787514686584
0.5662269592285156
0.6557816863059998
0.7329551577568054
0.7971951365470886
0.8483679890632629
0.8866724371910095
0.9125499129295349
0.9266066551208496
0.9295403361320496
0.9220927357673645
0.9050199389457703
0.9040847420692444
0.8708881735801697
0.819491446018219
0.7503142952919006
0.6646245121955872
0.5645466446876526
0.452924519777298
0.33307215571403503
0.20845606923103333
0.08238240331411362
-0.04222000390291214
-0.16290852427482605
-0.2777325510978699
-0.38516008853912354
-0.48398491740226746
-0.5732470154762268
-0.652165412902832
-0.7201030850410461
-0.7765468955039978
-0.8210861086845398
-0.8534060120582581
-0.8732734322547913
-0.88052898645401
-0.8750959038734436
-0.8569883704185486
-0.8263324499130249
-0.7834069728851318
-0.7286623120307922
-0.6627556681632996
-0.5865541100502014
-0.5011268854141235
-0.4077066481113434
-0.3076518177986145
-0.2023894190788269
-0.0933850035071373
0.01787494868040085
0.1298767328262329
0.24105370044708252
0.3497662842273712
0.45429107546806335
0.5528347492218018
0.6435716152191162
0.7246936559677124
0.7944743037223816
0.8513221144676208
0.8938372731208801
0.9208648800849915
0.9315569996833801
0.9254401922225952
0.9024952054023743
0.863211989402771
0.8086082339286804
0.7401880621910095
0.6598284244537354
0.5696122050285339
0.47164186835289
0.36788836121559143
0.26010122895240784
0.14979436993598938
0.038299791514873505
-0.07313904911279678
-0.18327513337135315
-0.2907746136188507
-0.3941895067691803
-0.49196746945381165
-0.5825136303901672
-0.6642656326293945
-0.7357844710350037
-0.7958141565322876
-0.8433300852775574
-0.8775498270988464
-0.8979353308677673
-0.904169499874115
-0.8961427807807922
-0.8739247918128967
-0.8377518057823181
-0.7880150079727173
-0.7252728939056396
-0.6502611041069031
-0.5639190673828125
-0.46742668747901917
-0.36223718523979187
-0.2500835657119751
-0.13299068808555603
-0.0132317915558815
0.10673811286687851
0.22438549995422363
0.33722755312919617
0.44296613335609436
0.5396087765693665
0.6255666613578796
0.6996946930885315
0.7613006830215454
0.8101089596748352
0.8461909890174866
0.8698938488960266
0.8817563652992249
0.8824456334114075
0.8727045059204102
0.8533207774162292
0.8459097743034363
0.8102031350135803
0.757304847240448
0.6882755160331726
0.604977011680603
0.5099228620529175
0.4060371220111847
0.2963450253009796
0.1836996078491211
0.07058640569448471
-0.04094729572534561
-0.1492573618888855
-0.25301292538642883
-0.3510747253894806
-0.4424060881137848
-0.5260217785835266
-0.6009758114814758
-0.6663765907287598
-0.7214146256446838
-0.7653886079788208
-0.7977226972579956
-0.8179786801338196
-0.8258631229400635
-0.8212355971336365
-0.8041247725486755
-0.7747432589530945
-0.7335138916969299
-0.6810728907585144
-0.6182711720466614
-0.5461456179618835
-0.4658764898777008
-0.37872132658958435
-0.2859545350074768
-0.18882033228874207
-0.0885135605931282
0.01380445808172226
0.11696509271860123
0.21973004937171936
0.32073745131492615
0.418465256690979
0.5112252831459045
0.5971952676773071
0.6744796633720398
0.7411975264549255
0.7955754399299622
0.836046040058136
0.8613470792770386
0.8706143498420715
0.8634709715843201
0.8401016592979431
0.8012722134590149
0.7482975125312805
0.6829236149787903
0.6071494221687317
0.5230205655097961
0.43245217204093933
0.33710983395576477
0.2383781373500824
0.1374044418334961
0.03518686443567276
-0.06731218844652176
-0.16906321048736572
-0.2688961625099182
-0.3654620349407196
-0.4572509825229645
-0.5426490902900696
-0.6200265288352966
-0.6878456473350525
-0.7447448372840881
-0.7896140813827515
-0.8216279745101929
-0.8402557373046875
-0.8452377319335938
-0.8365638852119446
-0.814436137676239
-0.7792336344718933
-0.7314919233322144
-0.6718844771385193
-0.6012251973152161
-0.5204769372940063
-0.430770605802536
-0.33342427015304565
-0.22995510697364807
-0.12209197133779526
-0.011758871376514435
0.09896015375852585
0.20788082480430603
0.3128054738044739
0.411624550819397
0.5024269819259644
0.5835961699485779
0.6538764834403992
0.7124102711677551
0.758735716342926
0.7927438020706177
0.8146253824234009
0.824806272983551
0.8238806128501892
0.8125651478767395
0.7916631102561951
0.7694405913352966
0.7319173812866211
0.6790173649787903
0.6124064922332764
0.5343669056892395
0.44752609729766846
0.3545651137828827
0.257940411567688
0.1597101390361786
0.06148027628660202
-0.035532303154468536
-0.13037344813346863
-0.22220563888549805
-0.31017637252807617
-0.393347829580307
-0.4706743657588959
-0.5410313010215759
-0.6032723784446716
-0.6563019156455994
-0.6991360783576965
-0.7309544682502747
-0.7511330842971802
-0.7592697739601135
-0.755199134349823
-0.7390066385269165
-0.7110366821289062
-0.6718897819519043
-0.6224060654640198
-0.5636236071586609
-0.4967135488986969
-0.42290762066841125
-0.3434118926525116
-0.25935110449790955
-0.17173296213150024
-0.08146525174379349
0.010606788098812103
0.10361932963132858
0.19661682844161987
0.2884727120399475
0.37784430384635925
0.46315327286720276
0.5426145792007446
0.6143006682395935
0.6762486696243286
0.7265827655792236
0.7636575102806091
0.7861976027488708
0.7934208512306213
0.7851347923278809
0.7617849707603455
0.7244235873222351
0.674598217010498
0.6141655445098877
0.5450702905654907
0.46914103627204895
0.3879531919956207
0.30277830362319946
0.21461334824562073
0.12427038699388504
0.03248033672571182
-0.05999339371919632
-0.15226829051971436
-0.2432810366153717
-0.3317638039588928
-0.4162566363811493
-0.4951644241809845
-0.5668477416038513
-0.6297255754470825
-0.6823872923851013
-0.7236807346343994
-0.7527667880058289
-0.7691379189491272
-0.7726073861122131
-0.7632724642753601
-0.7414646148681641
-0.707703709602356
-0.6626526713371277
-0.6070945858955383
-0.5419081449508667
-0.4680694043636322
-0.38664621114730835
-0.29881349205970764
-0.20585790276527405
-0.10919079929590225
-0.010350145399570465
0.08900269120931625
0.1870969533920288
0.28210151195526123
0.37217971682548523
0.4555743336677551
0.5306972861289978
0.5962141752243042
0.6511045098304749
0.6946954131126404
0.7266610264778137
0.7469916343688965
0.7559518814086914
0.7540267109870911
0.7418779134750366
0.7203059196472168
0.6764683723449707
0.6384217143058777
0.5875599384307861
0.5259789824485779
0.45609548687934875
0.38033536076545715
0.30085238814353943
0.21936067938804626
0.1370822787284851
0.054816149175167084
-0.026915468275547028
-0.10769227892160416
-0.18704107403755188
-0.2643117606639862
-0.3386230170726776
-0.40886813402175903
-0.47376713156700134
-0.531956136226654
-0.5820914506912231
-0.6229436993598938
-0.6534872651100159
-0.6729509830474854
-0.6808668971061707
-0.6770893931388855
-0.6618058681488037
-0.635521650314331
-0.5990344882011414
-0.553374707698822
-0.49972298741340637
-0.43931296467781067
-0.3733356297016144
-0.302859902381897
-0.2287897765636444
-0.15186503529548645
-0.0727015808224678
0.008125625550746918
0.09000604599714279
0.17219313979148865
0.25373324751853943
0.3334200382232666
0.4097714424133301
0.4810648560523987
0.5454027652740479
0.6008304953575134
0.6454872488975525
0.6777786612510681
0.6965448260307312
0.7012065052986145
0.6918402314186096
0.6691815257072449
0.6345216631889343
0.5895162224769592
0.5359516143798828
0.47552117705345154
0.40966591238975525
0.33951255679130554
0.26589512825012207
0.18944412469863892
0.11069200187921524
0.030185066163539886
-0.05143175274133682
-0.13334974646568298
-0.2145603597164154
-0.29384687542915344
-0.36980655789375305
-0.44090065360069275
-0.505538821220398
-0.5621795058250427
-0.6094396710395813
-0.6461947560310364
-0.6716421246528625
-0.6853311657905579
-0.6871578097343445
-0.6773146390914917
-0.656244158744812
-0.6245714426040649
-0.5830572843551636
-0.5325550436973572
-0.47397878766059875
-0.40828946232795715
-0.3364793658256531
-0.25957176089286804
-0.17861810326576233
-0.0947134867310524
-0.009006775915622711
0.07727094739675522
0.16279783844947815
0.24614962935447693
0.3258252739906311
0.4002957344055176
0.4680701196193695
0.5277856588363647
0.5782949328422546
0.6187205910682678
0.6485070586204529
0.6674183011054993
0.6755257844924927
0.673167884349823
0.6609258055686951
0.6395743489265442
0.5695868134498596
0.5328323245048523
0.4863748848438263
0.43245795369148254
0.3733152151107788
0.3108787536621094
0.24660587310791016
0.1814272105693817
0.11580773442983627
0.04989119619131088
-0.01632002741098404
-0.0827835276722908
-0.1492728590965271
-0.215277761220932
-0.2799610197544098
-0.342178076505661
-0.40054261684417725
-0.4535354673862457
-0.4996306002140045
-0.5374207496643066
-0.5657323598861694
-0.5837122797966003
-0.59088134765625
-0.5871668457984924
-0.5728906393051147
-0.5487422943115234
-0.5156988501548767
-0.4749278128147125
-0.42767134308815
-0.3751220703125
-0.3183285593986511
-0.25813624262809753
-0.19517579674720764
-0.12990382313728333
-0.06267597526311874
0.0061616674065589905
0.07617279142141342
0.1467483639717102
0.21703830361366272
0.28591811656951904
0.35198500752449036
0.41359350085258484
0.46893563866615295
0.516170084476471
0.5535879135131836
0.5798001885414124
0.5939202904701233
0.59568852186203
0.5855135321617126
0.5644037127494812
0.5337796211242676
0.4952390193939209
0.4502998888492584
0.4002280533313751
0.3459552824497223
0.28810274600982666
0.22707322239875793
0.16317394375801086
0.09672867506742477
0.028168626129627228
-0.04190957546234131
-0.11271495372056961
-0.18325060606002808
-0.25232836604118347
-0.31860217452049255
-0.3806208074092865
-0.4369015395641327
-0.4860258996486664
-0.5267325639724731
-0.5580108761787415
-0.5791670083999634
-0.5898483395576477
-0.5900354981422424
-0.5800012946128845
-0.5602532029151917
-0.5314705967903137
-0.4944516718387604
-0.45006415247917175
-0.39921361207962036
-0.3428115248680115
-0.2817533314228058
-0.21690425276756287
-0.14908787608146667
-0.07910028845071793
-0.007728345692157745
0.0642104223370552
0.13582655787467957
0.20611992478370667
0.27396002411842346
0.33809760212898254
0.39721378684043884
0.4499913454055786
0.4952111840248108
0.5318424701690674
0.5591142773628235
0.5765616297721863
0.5840446949005127
0.5817415118217468
0.5701166987419128
0.5498994588851929
0.4520341455936432
0.41869446635246277
0.37902888655662537
0.335103303194046
0.2886776030063629
0.24101793766021729
0.19283819198608398
0.14436066150665283
0.09544291347265244
0.04575490206480026
-0.0050454214215278625
-0.05715654045343399
-0.11051306873559952
-0.16469761729240417
-0.2189200222492218
-0.2720370888710022
-0.3226185739040375
-0.3690710961818695
-0.40977606177330017
-0.44323769211769104
-0.4682251513004303
-0.4838780462741852
-0.48978063464164734
-0.48597708344459534
-0.4729582965373993
-0.45157548785209656
-0.4229370653629303
-0.3882581889629364
-0.3487291634082794
-0.30538496375083923
-0.25903332233428955
-0.210227370262146
-0.15930140018463135
-0.10643898695707321
-0.05177236348390579
0.0045126453042030334
0.06209062784910202
0.12041636556386948
0.1786828339099884
0.23580601811408997
0.2904394865036011
0.3410332202911377
0.38592955470085144
0.4235038459300995
0.4523445665836334
0.47142982482910156
0.4802889823913574
0.47908318042755127
0.46857061982154846
0.4499552845954895
0.42464640736579895
0.3939920663833618
0.3590768277645111
0.32061851024627686
0.27898356318473816
0.234289288520813
0.18654745817184448
0.1357998251914978
0.08221990615129471
0.02617786079645157
-0.03173656761646271
-0.09071413427591324
-0.1497475504875183
-0.2076672613620758
-0.2631865441799164
-0.3149683177471161
-0.36168864369392395
-0.4021247327327728
-0.43522992730140686
-0.46020159125328064
-0.47652581334114075
-0.48399314284324646
-0.4826771318912506
-0.4729013741016388
-0.4551827013492584
-0.43018433451652527
-0.3986676037311554
-0.36145204305648804
-0.3193778395652771
-0.27326706051826477
-0.2238951325416565
-0.17196282744407654
-0.11808104068040848
-0.06277591735124588
-0.006513424217700958
0.05025371164083481
0.1070319190621376
0.16321972012519836
0.21806225180625916
0.2706308662891388
0.319835901260376
0.36448773741722107
0.4033798277378082
0.4353945255279541
0.45960381627082825
0.47534266114234924
0.4822731018066406
0.48039257526397705
0.4700392484664917
0.4518623650074005
0.32742324471473694
0.2996356785297394
0.2688409388065338
0.23664355278015137
0.20415112376213074
0.17191046476364136
0.13995704054832458
0.10794740170240402
0.07530894130468369
0.04141094535589218
0.005707971751689911
-0.03212887793779373
-0.07212579995393753
-0.11393771320581436
-0.1568288505077362
-0.19969728589057922
-0.24114510416984558
-0.2795961797237396
-0.31344419717788696
-0.3412174880504608
-0.3617325723171234
-0.3742241859436035
-0.37840837240219116
-0.3744952976703644
-0.3631351590156555
-0.3453006446361542
-0.3221363127231598
-0.2947905957698822
-0.26427212357521057
-0.23135268688201904
-0.1965162456035614
-0.15999138355255127
-0.1218135878443718
-0.08192724734544754
-0.040296681225299835
0.0029995664954185486
0.04767964035272598
0.09321244806051254
0.13878846168518066
0.18333488702774048
0.22555840015411377
0.264030396938324
0.297308087348938
0.3240898549556732
0.3433890640735626
0.3546878397464752
0.3580411970615387
0.3540712893009186
0.34384292364120483
0.32863980531692505
0.30969223380088806
0.2879522144794464
0.2639581263065338
0.23783710598945618
0.2094040811061859
0.1783244013786316
0.14427801966667175
0.10709793120622635
0.0668499693274498
0.023869819939136505
-0.021242059767246246
-0.06765610724687576
-0.11435503512620926
-0.1601945459842682
-0.20396584272384644
-0.24447277188301086
-0.28059542179107666
-0.31136807799339294
-0.3360272943973541
-0.3540543019771576
-0.3651790916919708
-0.36937013268470764
-0.3668016791343689
-0.3578137457370758
-0.3428776264190674
-0.3225703537464142
-0.29753920435905457
-0.26848676800727844
-0.23612722754478455
-0.20115330815315247
-0.16419342160224915
-0.12577980756759644
-0.08632556349039078
-0.046123214066028595
-0.005368731915950775
0.03579051047563553
0.07719429582357407
0.11859417706727982
0.15958961844444275
0.19957858324050903
0.23774978518486023
0.27311283349990845
0.30456650257110596
0.33100196719169617
0.3514144718647003
0.3650050759315491
0.37127062678337097
0.3700437843799591
0.36152157187461853
0.3462429940700531
0.19940033555030823
0.1790073812007904
0.15859299898147583
0.13912388682365417
0.12099891155958176
0.10410522669553757
0.08793362230062485
0.07173758000135422
0.05467741936445236
0.03596138209104538
0.014953605830669403
-0.008731372654438019
-0.03516513854265213
-0.06405887752771378
-0.09474540501832962
-0.12621217966079712
-0.15716484189033508
-0.18614119291305542
-0.21166417002677917
-0.232410728931427
-0.24736928939819336
-0.25596868991851807
-0.2581218481063843
-0.2542266547679901
-0.2450607717037201
-0.23163393139839172
-0.2150101363658905
-0.19614183902740479
-0.17574423551559448
-0.1542322337627411
-0.13173037767410278
-0.10813408344984055
-0.08320919424295425
-0.05670637637376785
-0.028469718992710114
0.0014702007174491882
0.03283678740262985
0.06507518142461777
0.0973532423377037
0.1286064088344574
0.15761351585388184
0.18311288952827454
0.20394954085350037
0.21923986077308655
0.22852623462677002
0.23187923431396484
0.22990992665290833
0.2236679494380951
0.2144213616847992
0.2033904790878296
0.19149354100227356
0.17918911576271057
0.1664462387561798
0.1528342366218567
0.13768842816352844
0.12030378729104996
0.1001022681593895
0.07675480097532272
0.05024387687444687
0.020872749388217926
-0.010762669146060944
-0.04382938891649246
-0.07733025401830673
-0.11017788201570511
-0.14127877354621887
-0.16961315274238586
-0.19430968165397644
-0.2147008180618286
-0.23035094141960144
-0.24106407165527344
-0.24684616923332214
-0.24785923957824707
-0.2443723976612091
-0.2367211878299713
-0.22528716921806335
-0.2105000913143158
-0.19283321499824524
-0.17280292510986328
-0.15094369649887085
-0.12777256965637207
-0.10374770313501358
-0.0792255625128746
-0.054432936012744904
-0.02946612983942032
-0.004304923117160797
0.021143339574337006
0.04698457568883896
0.07325971871614456
0.09987705200910568
0.1265493929386139
0.15276405215263367
0.17778760194778442
0.20071110129356384
0.22053956985473633
0.23629385232925415
0.2471325695514679
0.25244924426078796
0.251949667930603
0.24569037556648254
0.23408004641532898
0.07133092731237411
0.05963125079870224
0.05039446800947189
0.04389842599630356
0.03989168256521225
0.03772407025098801
0.03649779409170151
0.035216592252254486
0.032904379069805145
0.028710387647151947
0.021982334554195404
0.012325577437877655
-0.00034949928522109985
-0.015801824629306793
-0.03345728665590286
-0.05243486911058426
-0.07161662727594376
-0.08975435048341751
-0.10562194138765335
-0.11817166954278946
-0.1266801357269287
-0.13085708022117615
-0.1308625340461731
-0.12726333737373352
-0.12089867144823074
-0.11270690709352493
-0.10355178266763687
-0.09407102316617966
-0.08460035175085068
-0.07515913993120193
-0.06550446897745132
-0.05522429198026657
-0.04385637491941452
-0.031006835401058197
-0.01644778996706009
-0.00019455701112747192
0.017453543841838837
0.035906754434108734
0.05431876331567764
0.07165927439928055
0.08682403713464737
0.09878819435834885
0.10676612704992294
0.11036979407072067
0.10972791165113449
0.10550596565008163
0.09881667047739029
0.09101776033639908
0.08343585580587387
0.07708882540464401
0.07249893993139267
0.06961996108293533
0.067905493080616
0.06646508723497391
0.06426628679037094
0.06033051759004593
0.05389467626810074
0.04450622946023941
0.032070957124233246
0.01684548705816269
-0.0006134137511253357
-0.01951802521944046
-0.03894048184156418
-0.05790962278842926
-0.07550173252820969
-0.09092790633440018
-0.10360442847013474
-0.11319050937891006
-0.11959359794855118
-0.12293114513158798
-0.12347362190485
-0.12156232446432114
-0.11754588037729263
-0.11173752695322037
-0.10441090911626816
-0.09581459313631058
-0.0862056240439415
-0.07586503773927689
-0.0650983676314354
-0.054205916821956635
-0.04344341903924942
-0.03298335522413254
-0.02287953346967697
-0.013059504330158234
-0.00333414226770401
0.006566204130649567
0.016941316425800323
0.028058074414730072
0.040076516568660736
0.05299074202775955
0.06658368557691574
0.08041504770517349
0.09383892267942429
0.10606905072927475
0.11626439541578293
0.12364492565393448
0.12759312987327576
0.1277391016483307
0.12402204424142838