# vtk DataFile Version 3.0
2D PINN Solution
ASCII
DATASET STRUCTURED_GRID
DIMENSIONS 100 100 1
POINTS 10000 float
-1.0 -1.0 0.0
-0.9797979797979798 -1.0 0.0
-0.9595959595959596 -1.0 0.0
-0.9393939393939394 -1.0 0.0
-0.9191919191919192 -1.0 0.0
-0.898989898989899 -1.0 0.0
-0.8787878787878788 -1.0 0.0
-0.8585858585858586 -1.0 0.0
-0.8383838383838383 -1.0 0.0
-0.8181818181818181 -1.0 0.0
-0.797979797979798 -1.0 0.0
-0.7777777777777778 -1.0 0.0
-0.7575757575757576 -1.0 0.0
-0.7373737373737373 -1.0 0.0
-0.7171717171717171 -1.0 0.0
-0.696969696969697 -1.0 0.0
-0.6767676767676767 -1.0 0.0
-0.6565656565656566 -1.0 0.0
-0.6363636363636364 -1.0 0.0
-0.6161616161616161 -1.0 0.0
-0.5959595959595959 -1.0 0.0
-0.5757575757575757 -1.0 0.0
-0.5555555555555556 -1.0 0.0
-0.5353535353535352 -1.0 0.0
-0.5151515151515151 -1.0 0.0
-0.4949494949494949 -1.0 0.0
-0.4747474747474747 -1.0 0.0
-0.4545454545454545 -1.0 0.0
-0.43434343434343425 -1.0 0.0
-0.41414141414141414 -1.0 0.0
-0.3939393939393939 -1.0 0.0
-0.3737373737373737 -1.0 0.0
-0.3535353535353535 -1.0 0.0
-0.33333333333333326 -1.0 0.0
-0.31313131313131304 -1.0 0.0
-0.2929292929292928 -1.0 0.0
-0.2727272727272727 -1.0 0.0
-0.2525252525252525 -1.0 0.0
-0.23232323232323226 -1.0 0.0
-0.21212121212121204 -1.0 0.0
-0.19191919191919182 -1.0 0.0
-0.1717171717171716 -1.0 0.0
-0.1515151515151515 -1.0 0.0
-0.13131313131313127 -1.0 0.0
-0.11111111111111105 -1.0 0.0
-0.09090909090909083 -1.0 0.0
-0.07070707070707061 -1.0 0.0
-0.050505050505050386 -1.0 0.0
-0.030303030303030276 -1.0 0.0
-0.010101010101010055 -1.0 0.0
0.010101010101010166 -1.0 0.0
0.030303030303030498 -1.0 0.0
0.05050505050505061 -1.0 0.0
0.07070707070707072 -1.0 0.0
0.09090909090909105 -1.0 0.0
0.11111111111111116 -1.0 0.0
0.1313131313131315 -1.0 0.0
0.1515151515151516 -1.0 0.0
0.1717171717171717 -1.0 0.0
0.19191919191919204 -1.0 0.0
0.21212121212121215 -1.0 0.0
0.2323232323232325 -1.0 0.0
0.2525252525252526 -1.0 0.0
0.27272727272727293 -1.0 0.0
0.29292929292929304 -1.0 0.0
0.31313131313131315 -1.0 0.0
0.3333333333333335 -1.0 0.0
0.3535353535353536 -1.0 0.0
0.3737373737373739 -1.0 0.0
0.39393939393939403 -1.0 0.0
0.41414141414141437 -1.0 0.0
0.4343434343434345 -1.0 0.0
0.4545454545454546 -1.0 0.0
0.4747474747474749 -1.0 0.0
0.49494949494949503 -1.0 0.0
0.5151515151515154 -1.0 0.0
0.5353535353535355 -1.0 0.0
0.5555555555555556 -1.0 0.0
0.5757575757575759 -1.0 0.0
0.595959595959596 -1.0 0.0
0.6161616161616164 -1.0 0.0
0.6363636363636365 -1.0 0.0
0.6565656565656568 -1.0 0.0
0.6767676767676769 -1.0 0.0
0.696969696969697 -1.0 0.0
0.7171717171717173 -1.0 0.0
0.7373737373737375 -1.0 0.0
0.7575757575757578 -1.0 0.0
0.7777777777777779 -1.0 0.0
0.7979797979797982 -1.0 0.0
0.8181818181818183 -1.0 0.0
0.8383838383838385 -1.0 0.0
0.8585858585858588 -1.0 0.0
0.8787878787878789 -1.0 0.0
0.8989898989898992 -1.0 0.0
0.9191919191919193 -1.0 0.0
0.9393939393939394 -1.0 0.0
0.9595959595959598 -1.0 0.0
0.9797979797979799 -1.0 0.0
1.0 -1.0 0.0
-1.0 -0.9797979797979798 0.0
-0.9797979797979798 -0.9797979797979798 0.0
-0.9595959595959596 -0.9797979797979798 0.0
-0.9393939393939394 -0.9797979797979798 0.0
-0.9191919191919192 -0.9797979797979798 0.0
-0.898989898989899 -0.9797979797979798 0.0
-0.8787878787878788 -0.9797979797979798 0.0
-0.8585858585858586 -0.9797979797979798 0.0
-0.8383838383838383 -0.9797979797979798 0.0
-0.8181818181818181 -0.9797979797979798 0.0
-0.797979797979798 -0.9797979797979798 0.0
-0.7777777777777778 -0.9797979797979798 0.0
-0.7575757575757576 -0.9797979797979798 0.0
-0.7373737373737373 -0.9797979797979798 0.0
-0.7171717171717171 -0.9797979797979798 0.0
-0.696969696969697 -0.9797979797979798 0.0
-0.6767676767676767 -0.9797979797979798 0.0
-0.6565656565656566 -0.9797979797979798 0.0
-0.6363636363636364 -0.9797979797979798 0.0
-0.6161616161616161 -0.9797979797979798 0.0
-0.5959595959595959 -0.9797979797979798 0.0
-0.5757575757575757 -0.9797979797979798 0.0
-0.5555555555555556 -0.9797979797979798 0.0
-0.5353535353535352 -0.9797979797979798 0.0
-0.5151515151515151 -0.9797979797979798 0.0
-0.4949494949494949 -0.9797979797979798 0.0
-0.4747474747474747 -0.9797979797979798 0.0
-0.4545454545454545 -0.9797979797979798 0.0
-0.43434343434343425 -0.9797979797979798 0.0
-0.41414141414141414 -0.9797979797979798 0.0
-0.3939393939393939 -0.9797979797979798 0.0
-0.3737373737373737 -0.9797979797979798 0.0
-0.3535353535353535 -0.9797979797979798 0.0
-0.33333333333333326 -0.9797979797979798 0.0
-0.31313131313131304 -0.9797979797979798 0.0
-0.2929292929292928 -0.9797979797979798 0.0
-0.2727272727272727 -0.9797979797979798 0.0
-0.2525252525252525 -0.9797979797979798 0.0
-0.23232323232323226 -0.9797979797979798 0.0
-0.21212121212121204 -0.9797979797979798 0.0
-0.19191919191919182 -0.9797979797979798 0.0
-0.1717171717171716 -0.9797979797979798 0.0
-0.1515151515151515 -0.9797979797979798 0.0
-0.13131313131313127 -0.9797979797979798 0.0
-0.11111111111111105 -0.9797979797979798 0.0
-0.09090909090909083 -0.9797979797979798 0.0
-0.07070707070707061 -0.9797979797979798 0.0
-0.050505050505050386 -0.9797979797979798 0.0
-0.030303030303030276 -0.9797979797979798 0.0
-0.010101010101010055 -0.9797979797979798 0.0
0.010101010101010166 -0.9797979797979798 0.0
0.030303030303030498 -0.9797979797979798 0.0
0.05050505050505061 -0.9797979797979798 0.0
0.07070707070707072 -0.9797979797979798 0.0
0.09090909090909105 -0.9797979797979798 0.0
0.11111111111111116 -0.9797979797979798 0.0
0.1313131313131315 -0.9797979797979798 0.0
0.1515151515151516 -0.9797979797979798 0.0
0.1717171717171717 -0.9797979797979798 0.0
0.19191919191919204 -0.9797979797979798 0.0
0.21212121212121215 -0.9797979797979798 0.0
0.2323232323232325 -0.9797979797979798 0.0
0.2525252525252526 -0.9797979797979798 0.0
0.27272727272727293 -0.9797979797979798 0.0
0.29292929292929304 -0.9797979797979798 0.0
0.31313131313131315 -0.9797979797979798 0.0
0.3333333333333335 -0.9797979797979798 0.0
0.3535353535353536 -0.9797979797979798 0.0
0.3737373737373739 -0.9797979797979798 0.0
0.39393939393939403 -0.9797979797979798 0.0
0.41414141414141437 -0.9797979797979798 0.0
0.4343434343434345 -0.9797979797979798 0.0
0.4545454545454546 -0.9797979797979798 0.0
0.4747474747474749 -0.9797979797979798 0.0
0.49494949494949503 -0.9797979797979798 0.0
0.5151515151515154 -0.9797979797979798 0.0
0.5353535353535355 -0.9797979797979798 0.0
0.5555555555555556 -0.9797979797979798 0.0
0.5757575757575759 -0.9797979797979798 0.0
0.595959595959596 -0.9797979797979798 0.0
0.6161616161616164 -0.9797979797979798 0.0
0.6363636363636365 -0.9797979797979798 0.0
0.6565656565656568 -0.9797979797979798 0.0
0.6767676767676769 -0.9797979797979798 0.0
0.696969696969697 -0.9797979797979798 0.0
0.7171717171717173 -0.9797979797979798 0.0
0.7373737373737375 -0.9797979797979798 0.0
0.7575757575757578 -0.9797979797979798 0.0
0.7777777777777779 -0.9797979797979798 0.0
0.7979797979797982 -0.9797979797979798 0.0
0.8181818181818183 -0.9797979797979798 0.0
0.8383838383838385 -0.9797979797979798 0.0
0.8585858585858588 -0.9797979797979798 0.0
0.8787878787878789 -0.9797979797979798 0.0
0.8989898989898992 -0.9797979797979798 0.0
0.9191919191919193 -0.9797979797979798 0.0
0.9393939393939394 -0.9797979797979798 0.0
0.9595959595959598 -0.9797979797979798 0.0
0.9797979797979799 -0.9797979797979798 0.0
1.0 -0.9797979797979798 0.0
-1.0 -0.9595959595959596 0.0
-0.9797979797979798 -0.9595959595959596 0.0
-0.9595959595959596 -0.9595959595959596 0.0
-0.9393939393939394 -0.9595959595959596 0.0
-0.9191919191919192 -0.9595959595959596 0.0
-0.898989898989899 -0.9595959595959596 0.0
-0.8787878787878788 -0.9595959595959596 0.0
-0.8585858585858586 -0.9595959595959596 0.0
-0.8383838383838383 -0.9595959595959596 0.0
-0.8181818181818181 -0.9595959595959596 0.0
-0.797979797979798 -0.9595959595959596 0.0
-0.7777777777777778 -0.9595959595959596 0.0
-0.7575757575757576 -0.9595959595959596 0.0
-0.7373737373737373 -0.9595959595959596 0.0
-0.7171717171717171 -0.9595959595959596 0.0
-0.696969696969697 -0.9595959595959596 0.0
-0.6767676767676767 -0.9595959595959596 0.0
-0.6565656565656566 -0.9595959595959596 0.0
-0.6363636363636364 -0.9595959595959596 0.0
-0.6161616161616161 -0.9595959595959596 0.0
-0.5959595959595959 -0.9595959595959596 0.0
-0.5757575757575757 -0.9595959595959596 0.0
-0.5555555555555556 -0.9595959595959596 0.0
-0.5353535353535352 -0.9595959595959596 0.0
-0.5151515151515151 -0.9595959595959596 0.0
-0.4949494949494949 -0.9595959595959596 0.0
-0.4747474747474747 -0.9595959595959596 0.0
-0.4545454545454545 -0.9595959595959596 0.0
-0.43434343434343425 -0.9595959595959596 0.0
-0.41414141414141414 -0.9595959595959596 0.0
-0.3939393939393939 -0.9595959595959596 0.0
-0.3737373737373737 -0.9595959595959596 0.0
-0.3535353535353535 -0.9595959595959596 0.0
-0.33333333333333326 -0.9595959595959596 0.0
-0.31313131313131304 -0.9595959595959596 0.0
-0.2929292929292928 -0.9595959595959596 0.0
-0.2727272727272727 -0.9595959595959596 0.0
-0.2525252525252525 -0.9595959595959596 0.0
-0.23232323232323226 -0.9595959595959596 0.0
-0.21212121212121204 -0.9595959595959596 0.0
-0.19191919191919182 -0.9595959595959596 0.0
-0.1717171717171716 -0.9595959595959596 0.0
-0.1515151515151515 -0.9595959595959596 0.0
-0.13131313131313127 -0.9595959595959596 0.0
-0.11111111111111105 -0.9595959595959596 0.0
-0.09090909090909083 -0.9595959595959596 0.0
-0.07070707070707061 -0.9595959595959596 0.0
-0.050505050505050386 -0.9595959595959596 0.0
-0.030303030303030276 -0.9595959595959596 0.0
-0.010101010101010055 -0.9595959595959596 0.0
0.010101010101010166 -0.9595959595959596 0.0
0.030303030303030498 -0.9595959595959596 0.0
0.05050505050505061 -0.9595959595959596 0.0
0.07070707070707072 -0.9595959595959596 0.0
0.09090909090909105 -0.9595959595959596 0.0
0.11111111111111116 -0.9595959595959596 0.0
0.1313131313131315 -0.9595959595959596 0.0
0.1515151515151516 -0.9595959595959596 0.0
0.1717171717171717 -0.9595959595959596 0.0
0.19191919191919204 -0.9595959595959596 0.0
0.21212121212121215 -0.9595959595959596 0.0
[...]
POINT_DATA 10000
SCALARS u float 1
LOOKUP_TABLE default
0.23405781388282776
0.28468891978263855
0.33213093876838684
0.3754841983318329
0.4136974811553955
0.4456413984298706
0.47021761536598206
0.4864859879016876
0.4937761723995209
0.49177587032318115
0.4805518388748169
0.46054381132125854
0.4325030446052551
0.3974214494228363
0.3564426004886627
0.3107741177082062
0.26160693168640137
0.21003758907318115
0.1569974422454834
0.1032012477517128
0.049118705093860626
-0.005013085901737213
-0.05913510173559189
-0.11325914412736893
-0.1673251986503601
-0.22104397416114807
-0.2737696170806885
-0.32443153858184814
-0.37157848477363586
-0.4135182201862335
-0.4485318958759308
-0.4751071035861969
-0.4921348989009857
-0.4990209639072418
-0.49569836258888245
-0.4825715720653534
-0.460409015417099
-0.43021032214164734
-0.39310112595558167
-0.35023149847984314
-0.30271056294441223
-0.25155916810035706
-0.19768288731575012
-0.14186140894889832
-0.08474848419427872
-0.026896275579929352
0.031203515827655792
0.08905642479658127
0.14609470963478088
0.20162522792816162
0.2548070549964905
0.3046729564666748
0.35019734501838684
0.39037466049194336
0.42430379986763
0.45123472809791565
0.47058677673339844
0.48194393515586853
0.4850371181964874
0.4797475039958954
0.4661208689212799
0.4444092810153961
0.4150839149951935
0.37884408235549927
0.33656859397888184
0.28924351930618286
0.23787596821784973
0.18342596292495728
0.12676864862442017
0.06869394332170486
0.009921394288539886
-0.048867128789424896
-0.10699982196092606
-0.16378456354141235
-0.21849998831748962
-0.2703775465488434
-0.3186139166355133
-0.36237773299217224
-0.400835782289505
-0.4331858158111572
-0.45870402455329895
-0.4767850935459137
-0.4869801700115204
-0.4890349805355072
-0.48290541768074036
-0.46875783801078796
-0.4469511806964874
-0.4179947078227997
-0.3825143277645111
-0.34118905663490295
-0.29470887780189514
-0.24373355507850647
-0.18886667490005493
-0.1306370198726654
-0.06950946897268295
-0.005888812243938446
0.05985499173402786
0.1273680329322815
0.19628554582595825
0.26621174812316895
0.282398521900177
0.34677019715309143
0.40694674849510193
0.46153005957603455
0.5090416669845581
0.5480550527572632
0.5773409605026245
0.5959972739219666
0.6035340428352356
0.5999009013175964
0.5854564309120178
0.5609012246131897
0.5271831750869751
0.48541030287742615
0.43676820397377014
0.3824557960033417
0.3236194849014282
0.2613126337528229
0.19645190238952637
0.12978708744049072
0.06189962476491928
-0.00677422434091568
-0.07587147504091263
-0.14500018954277039
-0.21360567212104797
-0.2808530628681183
-0.34556248784065247
-0.4062252640724182
-0.46112146973609924
-0.508503258228302
-0.54681396484375
-0.5748595595359802
-0.5919215083122253
-0.5977774262428284
-0.5926395058631897
-0.5770618915557861
-0.5518204569816589
-0.5178090929985046
-0.4759587347507477
-0.4271915853023529
-0.37239518761634827
-0.31242623925209045
-0.2481183111667633
-0.1802961826324463
-0.10978703945875168
-0.03743920475244522
0.03585576266050339
0.10912828892469406
0.1813068389892578
0.2512122094631195
0.3175765872001648
0.3791070878505707
0.4345666468143463
0.4828545153141022
0.5230587720870972
0.5544776320457458
0.5766063928604126
0.5891042947769165
0.5917723178863525
0.5845392346382141
0.5674863457679749
0.5408816337585449
0.5052222609519958
0.46125367283821106
0.409952312707901
0.3524620234966278
0.29000309109687805
0.22377833724021912
0.15490245819091797
0.08437611907720566
0.013084881007671356
-0.058168329298496246
-0.12862145900726318
-0.1975109875202179
-0.2640368640422821
-0.32733842730522156
-0.38648417592048645
-0.4404764473438263
-0.48827221989631653
-0.5288235545158386
-0.5611388683319092
-0.5843382477760315
-0.5977272391319275
-0.6008543968200684
-0.5935534238815308
-0.5759618878364563
-0.5485124588012695
-0.511894166469574
-0.46699753403663635
-0.4148368239402771
-0.35648009181022644
-0.29298028349876404
-0.2253246009349823
-0.15440264344215393
-0.08098842948675156
-0.005756206810474396
0.07070966809988022
0.1478859782218933
0.2252793312072754
0.30240753293037415
0.32798779010772705
0.4048992693424225
0.47637656331062317
0.540607213973999
0.5958244800567627
0.6404638290405273
0.6733166575431824
0.693634033203125
0.7011621594429016
0.6961129307746887
0.6790795922279358
0.650938093662262
0.612730085849762
0.5655778050422668
0.510615885257721
0.44894349575042725
0.38160040974617004
0.30954980850219727
0.23367145657539368
0.15476930141448975
0.07358463853597641
-0.009160317480564117
-0.09269169718027115
-0.1761002540588379
-0.2582533359527588
-0.33774474263191223
-0.4129161536693573
-0.4819481670856476
-0.5430290102958679
-0.5945361256599426
-0.6352084279060364
-0.6642338633537292
-0.6812747716903687
-0.6864120364189148
-0.6800433993339539
-0.6627729535102844
-0.6353017091751099
-0.598351776599884
-0.5526204109191895
-0.49877312779426575
-0.4374679625034332
-0.36939847469329834
-0.2953394949436188
-0.21618804335594177
-0.13298681378364563
-0.04692719131708145
0.040647707879543304
0.12826129794120789
0.21433299779891968
0.29722559452056885
0.3753189146518707
0.4470854699611664
0.5111747980117798
0.5664624571800232
0.6120783090591431
0.6473854780197144
0.6719493865966797
0.6854942440986633
0.6878750920295715
0.6790646910667419
0.6591752767562866
0.6284899115562439
0.5875064730644226
0.536973237991333
0.4778923988342285
0.41148123145103455
0.3390957713127136
0.26213523745536804
0.1819438636302948
0.09974875301122665
0.016646184027194977
-0.0663897916674614
-0.14845916628837585
-0.22868415713310242
-0.30616435408592224
-0.3799334168434143
-0.4489409029483795
-0.5120501518249512
-0.5680583715438843
-0.6157410144805908
-0.6539143323898315
-0.6815109252929688
-0.6976572871208191
-0.701754093170166
-0.6935259103775024
-0.6730620265007019
-0.6408132910728455
-0.5975677371025085
-0.5443868637084961
-0.4825343191623688
-0.4133822023868561
-0.33833006024360657
-0.258726567029953
-0.17581698298454285
-0.0907125398516655
-0.0043819621205329895
0.08233898133039474
0.16872546076774597
0.254131019115448
0.33796969056129456
0.37012770771980286
0.4579298198223114
0.5388868451118469
0.610913097858429
0.6721124649047852
0.7209458351135254
0.7563485503196716
0.7777930498123169
0.7852669954299927
0.7791953086853027
0.7603315711021423
0.7296276688575745
0.6881268620491028
0.6368800401687622
0.5768960118293762
0.5091173052787781
0.43442976474761963
0.3536823093891144
0.2677170932292938
0.1774163544178009
0.08373790234327316
-0.012224249541759491
-0.10919070988893509
-0.20565947890281677
-0.29989251494407654
-0.38995617628097534
-0.4738270342350006
-0.5495430827140808
-0.6153706312179565
-0.6699507832527161
-0.7123798727989197
-0.7422217726707458
-0.7594518065452576
-0.7643535733222961
-0.7574062347412109
-0.7391727566719055
-0.7102159261703491
-0.6710463762283325
-0.6221134066581726
-0.5638324022293091
-0.4966522753238678
-0.42113181948661804
-0.3380279839038849
-0.2483540177345276
-0.1534087061882019
-0.05477019399404526
0.045750223100185394
0.14617562294006348
0.24445918202400208
0.33858442306518555
0.4266716539859772
0.507061243057251
0.5783721208572388
0.6395143866539001
0.6896806359291077
0.728298008441925
0.7549869418144226
0.7695176005363464
0.7717858552932739
0.7618038654327393
0.7397117018699646
0.7058060765266418
0.6605784296989441
0.6047487258911133
0.53928542137146
0.46539977192878723
0.3844945430755615
0.2980877161026001
0.20770978927612305
0.11482017487287521
0.020754285156726837
-0.07328137010335922
-0.16618692874908447
-0.25691643357276917
-0.34442219138145447
-0.42761242389678955
-0.5053175091743469
-0.5762854814529419
-0.6392080187797546
-0.6927543878555298
-0.7356422543525696
-0.7667080760002136
-0.784991443157196
-0.7898094654083252
-0.7808169722557068
-0.7580455541610718
-0.7219234108924866
-0.6732539534568787
-0.6131748557090759
-0.543089747428894
-0.46457919478416443
-0.37931111454963684
-0.28895023465156555
-0.19508063793182373
-0.0991552546620369
-0.0024631693959236145
0.09387383610010147
0.1888931691646576
0.2817651331424713
0.3717746436595917
0.4078555405139923
0.5045263767242432
0.5928926467895508
0.6707569360733032
0.7362603545188904
0.7880148887634277
0.8251763582229614
0.8474465012550354
0.8550123572349548
0.84843909740448
0.8285446763038635
0.7962731719017029
0.7525905966758728
0.698413610458374
0.6345797777175903
0.5618448853492737
0.4809252917766571
0.39255398511886597
0.29755720496177673
0.19693195819854736
0.09191738814115524
-0.015954144299030304
-0.12484358996152878
-0.23264116048812866
-0.33704549074172974
-0.4357086718082428
-0.5264034867286682
-0.6071878671646118
-0.6765426397323608
-0.733434796333313
-0.7773174047470093
-0.8080624938011169
-0.8258561491966248
-0.8310790061950684
-0.8241922855377197
-0.8056450486183167
-0.7758155465126038
-0.7349868416786194
-0.6833677887916565
-0.6211571097373962
-0.5486389994621277
-0.46629980206489563
-0.3749367296695709
-0.27573537826538086
-0.17029359936714172
-0.060582466423511505
0.05113612860441208
0.16244575381278992
0.2709217965602875
0.37427714467048645
0.4704796075820923
0.5578200817108154
0.6349403858184814
0.7008101940155029
0.7546812891960144
0.7960352301597595
0.8245311379432678
0.839973509311676
0.8422905802726746
0.8315264582633972
0.807853102684021
0.7715807557106018
0.7231886386871338
0.6633505821228027
0.5929661393165588
0.5131740570068359
0.4253407120704651
0.33101093769073486
0.23183193802833557
0.1294633448123932
0.0254969522356987
-0.07858679443597794
-0.1814207136631012
-0.28171995282173157
-0.3782375156879425
-0.4697186052799225
-0.554869532585144
-0.6323497295379639
-0.7007887959480286
-0.7588284015655518
-0.8051759004592896
-0.8386701941490173
-0.8583574295043945
-0.8635439276695251
-0.8538603782653809
-0.8292973041534424
-0.7902272939682007
-0.7374083399772644
-0.6719606518745422
-0.5953173041343689
-0.5091601014137268
-0.4153284728527069
-0.3157312572002411
-0.2122500240802765
-0.10666627436876297
-0.0006016716361045837
0.10450731962919235
0.20742866396903992
0.3071148991584778
0.40269705653190613
0.43999841809272766
0.543268620967865
0.6368823051452637
0.7186942100524902
0.7870081067085266
0.8406655788421631
0.8790537714958191
0.9020665287971497
0.910014808177948
0.9035149216651917
0.8833603262901306
0.8504126667976379
0.8055031895637512
0.7493804097175598
0.6826924681663513
0.6060084700584412
0.5198899507522583
0.4249855875968933
0.32214829325675964
0.21254479885101318
0.09774746745824814
-0.020239390432834625
-0.13902387022972107
-0.2559453248977661
-0.36826732754707336
-0.4733889400959015
-0.5690438747406006
-0.653447687625885
-0.7253590822219849
-0.7840701341629028
-0.829323410987854
-0.8611997961997986
-0.8799893260002136
-0.8860641121864319
-0.8797909617424011
-0.8614495992660522
-0.8312088847160339
-0.7891278862953186
-0.7352060079574585
-0.6694750785827637
-0.592129111289978
-0.5036589503288269
-0.40497997403144836
-0.2975033223628998
-0.18314394354820251
-0.06424868851900101
0.05654873698949814
0.17650073766708374
0.292933851480484
0.40340879559516907
0.5058292746543884
0.5984906554222107
0.680073618888855
0.7495958805084229
0.8063567280769348
0.8498715758323669
0.879830002784729
0.8960664868354797
0.8985399007797241
0.887332022190094
0.8626419901847839
0.8247951865196228
0.7742557525634766
0.711645781993866
0.6377773880958557
0.5536783933639526
0.4606100916862488
0.36006611585617065
0.25372210144996643
0.14337211847305298
0.030840478837490082
-0.08209501951932907
-0.1937456727027893
-0.3025240898132324
-0.4069207012653351
-0.5054793357849121
-0.5967656970024109
-0.6793693900108337
-0.7519068121910095
-0.8130564093589783
-0.8615987300872803
-0.8964642286300659
-0.9167845845222473
-0.9219332337379456
-0.9115650057792664
-0.8856496810913086
-0.8444990515708923
-0.7887821793556213
-0.7195277810096741
-0.6381074786186218
-0.5461923480033875
-0.4456919729709625
-0.33866456151008606
-0.2272256314754486
-0.11344654113054276
0.0007249340415000916
0.1135316714644432
0.2234402298927307
0.32916077971458435
0.42963913083076477
0.46529659628868103
0.5728010535240173
0.6695694327354431
0.7536316514015198
0.8235349655151367
0.8783588409423828
0.9176846146583557
0.9415234327316284
0.9502221941947937
0.944354772567749
0.9246179461479187
0.8917291760444641
0.8463538885116577
0.7890589833259583
0.7203143835067749
0.6405346989631653
0.5501759052276611
0.44986364245414734
0.3405412435531616
0.22360703349113464
0.10099341720342636
-0.024841763079166412
-0.15103167295455933
-0.27451255917549133
-0.39229094982147217
-0.5016962289810181
-0.6005699038505554
-0.6873546838760376
-0.7610880136489868
-0.8213186860084534
-0.867980420589447
-0.9012503027915955
-0.9214156270027161
-0.9287638068199158
-0.9235050082206726
-0.9057233929634094
-0.8753713369369507
-0.8323084115982056
-0.7763729691505432
-0.7075048685073853
-0.6258946061134338
-0.5321276783943176
-0.4273112118244171
-0.3131245970726013
-0.1917855441570282
-0.06593822687864304
0.06152933090925217
0.18768399953842163
0.30974704027175903
0.4252351224422455
0.5320524573326111
0.6285095810890198
0.7133081555366516
0.7854865789413452
0.8443580865859985
0.8894598484039307
0.9205088019371033
0.9373697638511658
0.9400449991226196
0.9286532402038574
0.9034245610237122
0.8646978735923767
0.8129226565361023
0.7486692667007446
0.672659158706665
0.5857955813407898
0.4892023503780365
0.3842555582523346
0.2725815176963806
0.1560269594192505
0.03658432513475418
-0.08369127660989761
-0.20277252793312073
-0.318718820810318
-0.4297046363353729
-0.5340279936790466
-0.6301011443138123
-0.7164475321769714
-0.7917076945304871
-0.854652464389801
-0.904201090335846
-0.9394469857215881
-0.9596748948097229
-0.9643812775611877
-0.9532909989356995
-0.9263865947723389
-0.8839251399040222
-0.826469361782074
-0.7549143433570862
-0.6704963445663452
-0.5747882723808289
-0.4696630537509918
-0.3572344481945038
-0.23975858092308044
-0.11953764408826828
0.0011953487992286682
0.12036751955747604
0.23614200949668884
0.3469594419002533
0.4515567719936371
0.48255476355552673
0.5919879078865051
0.6900100111961365
0.7749015688896179
0.8454607725143433
0.9009671807289124
0.9411234259605408
0.9659660458564758
0.9757870435714722
0.9710397720336914
0.9522601962089539
0.9199838042259216
0.8746939897537231
0.8167896866798401
0.7466009259223938
0.6644484400749207
0.5707644820213318
0.4662395417690277
0.351988822221756
0.22968745231628418
0.10161756724119186
-0.029393769800662994
-0.16016191244125366
-0.2874266505241394
-0.40814828872680664
-0.5197545289993286
-0.6202862858772278
-0.7084220051765442
-0.7834177613258362
-0.8449757099151611
-0.8931022882461548
-0.9279617667198181
-0.94975346326828
-0.9586196541786194
-0.9545813202857971
-0.9375202059745789
-0.9071963429450989
-0.8633105158805847
-0.8056114315986633
-0.7340351939201355
-0.6488630175590515
-0.5508661270141602
-0.44139859080314636
-0.322406142950058
-0.1963508427143097
-0.06605499237775803
0.06549198180437088
0.1953381597995758
0.3207245171070099
0.4392067790031433
0.5487145781517029
0.6475613713264465
0.7344333529472351
0.8083454966545105
0.8685957789421082
0.9147273302078247
0.9464808106422424
0.9637646079063416
0.9666264653205872
0.9552327990531921
0.929847240447998
0.8908217549324036
0.8385918140411377
0.7736836075782776
0.6967328190803528
0.6085270047187805
0.51004558801651
0.40252232551574707
0.2874753475189209
0.16671928763389587
0.0423344150185585
-0.08341964334249496
-0.208205908536911
-0.3297252357006073
-0.44580599665641785
-0.5544664263725281
-0.6539405584335327
-0.7426890134811401
-0.8193920254707336
-0.882949709892273
-0.9324640035629272
-0.9672345519065857
-0.9867457747459412
-0.9906570315361023
-0.9788054823875427
-0.9512104392051697
-0.9080973863601685
-0.849930465221405
-0.7774538993835449
-0.6917316317558289
-0.5941707491874695
-0.4865247309207916
-0.3708578050136566
-0.249475359916687
-0.12481801956892014
0.0006551072001457214
0.12460073083639145
0.24488785862922668
0.3596837818622589
0.467497855424881
0.4908158481121063
0.6000552773475647
0.6976924538612366
0.7822737097740173
0.8528088331222534
0.9086996912956238
0.9496787786483765
0.9757182002067566
0.986972987651825
0.9837128520011902
0.9662646055221558
0.9349637627601624
0.8901141285896301
0.8319810032844543
0.760815441608429
0.6769364476203918
0.5808560252189636
0.47343751788139343
0.3560434877872467
0.23064234852790833
0.09980236738920212
-0.03343162685632706
-0.16577836871147156
-0.29401466250419617
-0.41525545716285706
-0.527150571346283
-0.6279732584953308
-0.7165961861610413
-0.792391300201416
-0.855097770690918
-0.904677152633667
-0.9411876797676086
-0.9646710753440857
-0.9750860333442688
-0.9722595810890198
-0.9558888077735901
-0.9255857467651367
-0.8809642195701599
-0.821769654750824
-0.7480331063270569
-0.6602227687835693
-0.5593585968017578
-0.44705668091773987
-0.3254808783531189
-0.19722667336463928
-0.06514153629541397
0.06785225123167038
0.19891789555549622
0.3254176080226898
0.4449915587902069
0.5555965304374695
0.6555237174034119
0.743401825428009
0.8181848526000977
0.8791297078132629
0.9257664084434509
0.9578562378883362
0.9753503799438477
0.9783516526222229
0.9670765995979309
0.9418272376060486
0.9029726386070251
0.8509381413459778
0.7862127423286438
0.7093671560287476
0.6210870146751404
0.5222314596176147
0.41389086842536926
0.29745081067085266
0.17463988065719604
0.04753103107213974
-0.08150709420442581
-0.20991533994674683
-0.33508703112602234
-0.4545208513736725
-0.565945565700531
-0.6673975586891174
-0.7572599053382874
-0.8342551589012146
-0.8974148631095886
-0.9460421204566956
-0.9796614050865173
-0.9979761242866516
-1.0008350610733032
-0.9882081151008606
-0.9601829648017883
-0.9169785380363464
-0.8589850068092346
-0.7868053913116455
-0.7013232111930847
-0.6037459969520569
-0.49564579129219055
-0.3789554536342621
-0.25592538714408875
-0.12903809547424316
-0.0008829906582832336
0.1259899139404297
0.2492004930973053
0.366658478975296
0.47663840651512146
0.48950064182281494
0.5966793894767761
0.692566990852356
0.7759402394294739
0.8459432721138
0.9020145535469055
0.9438202977180481
0.9711900949478149
0.9840770959854126
0.9825166463851929
0.9666032195091248
0.9364627599716187
0.8922456502914429
0.8341321349143982
0.7623834013938904
0.6774230599403381
0.5799649357795715
0.4711453914642334
0.35262951254844666
0.2266477346420288
0.0959286317229271
-0.03646863251924515
-0.16740548610687256
-0.29392239451408386
-0.4134456217288971
-0.5239188075065613
-0.6238321661949158
-0.7121698260307312
-0.7883146405220032
-0.8519227504730225
-0.9028130173683167
-0.9408528208732605
-0.9658836722373962
-0.9776615500450134
-0.9758324027061462
-0.959955632686615
-0.9295632243156433
-0.8842763900756836
-0.8239403963088989
-0.748780369758606
-0.6595249772071838
-0.5574668645858765
-0.44444540143013
-0.3227400779724121
-0.19492989778518677
-0.06372790783643723
0.06815154105424881
0.19808930158615112
0.32362428307533264
0.4424971342086792
0.5526833534240723
0.6524278521537781
0.7402785420417786
0.8151034712791443
0.8760958909988403
0.9227549433708191
0.9548491835594177
0.9723660349845886
0.9754571914672852
0.964390218257904
0.939508855342865
0.9012016654014587
0.8498951196670532
0.7860565781593323
0.7102094888687134
0.6229718327522278
0.5251067876815796
0.4175901710987091
0.3016841411590576
0.17899861931800842
0.051531948149204254
-0.07834605127573013
-0.2079767882823944
-0.33455994725227356
-0.4553374946117401
-0.5677803158760071
-0.6697282791137695
-0.759465754032135
-0.8357288241386414
-0.8976641297340393
-0.9447563290596008
-0.9767466187477112
-0.9935536980628967
-0.9952196478843689
-0.9818596243858337
-0.9536533951759338
-0.9108443856239319
-0.8537758588790894
-0.7829456925392151
-0.699069619178772
-0.6031537652015686
-0.49655643105506897
-0.3810168206691742
-0.2586427628993988
-0.13185220956802368
-0.003257535398006439
0.12447812408208847
0.2487982213497162
0.36739382147789
0.47831806540489197
0.47849270701408386
0.5820231437683105
0.6750290989875793
0.7564542293548584
0.8254952430725098
0.8815380930900574
0.9241040945053101
0.9528173208236694
0.9673776030540466
0.9675618410110474