# vtk DataFile Version 3.0
2D PINN Solution
ASCII
DATASET STRUCTURED_GRID
DIMENSIONS 100 100 1
POINTS 10000 float
-1.0 -1.0 0.0
-0.9797979797979798 -1.0 0.0
-0.9595959595959596 -1.0 0.0
-0.9393939393939394 -1.0 0.0
-0.9191919191919192 -1.0 0.0
-0.898989898989899 -1.0 0.0
-0.8787878787878788 -1.0 0.0
-0.8585858585858586 -1.0 0.0
-0.8383838383838383 -1.0 0.0
-0.8181818181818181 -1.0 0.0
-0.797979797979798 -1.0 0.0
-0.7777777777777778 -1.0 0.0
-0.7575757575757576 -1.0 0.0
-0.7373737373737373 -1.0 0.0
-0.7171717171717171 -1.0 0.0
-0.696969696969697 -1.0 0.0
-0.6767676767676767 -1.0 0.0
-0.6565656565656566 -1.0 0.0
-0.6363636363636364 -1.0 0.0
-0.6161616161616161 -1.0 0.0
-0.5959595959595959 -1.0 0.0
-0.5757575757575757 -1.0 0.0
-0.5555555555555556 -1.0 0.0
-0.5353535353535352 -1.0 0.0
-0.5151515151515151 -1.0 0.0
-0.4949494949494949 -1.0 0.0
-0.4747474747474747 -1.0 0.0
-0.4545454545454545 -1.0 0.0
-0.43434343434343425 -1.0 0.0
-0.41414141414141414 -1.0 0.0
-0.3939393939393939 -1.0 0.0
-0.3737373737373737 -1.0 0.0
-0.3535353535353535 -1.0 0.0
-0.33333333333333326 -1.0 0.0
-0.31313131313131304 -1.0 0.0
-0.2929292929292928 -1.0 0.0
-0.2727272727272727 -1.0 0.0
-0.2525252525252525 -1.0 0.0
-0.23232323232323226 -1.0 0.0
-0.21212121212121204 -1.0 0.0
-0.19191919191919182 -1.0 0.0
-0.1717171717171716 -1.0 0.0
-0.1515151515151515 -1.0 0.0
-0.13131313131313127 -1.0 0.0
-0.11111111111111105 -1.0 0.0
-0.09090909090909083 -1.0 0.0
-0.07070707070707061 -1.0 0.0
-0.050505050505050386 -1.0 0.0
-0.030303030303030276 -1.0 0.0
-0.010101010101010055 -1.0 0.0
0.010101010101010166 -1.0 0.0
0.030303030303030498 -1.0 0.0
0.05050505050505061 -1.0 0.0
0.07070707070707072 -1.0 0.0
0.09090909090909105 -1.0 0.0
0.11111111111111116 -1.0 0.0
0.1313131313131315 -1.0 0.0
0.1515151515151516 -1.0 0.0
0.1717171717171717 -1.0 0.0
0.19191919191919204 -1.0 0.0
0.21212121212121215 -1.0 0.0
0.2323232323232325 -1.0 0.0
0.2525252525252526 -1.0 0.0
0.27272727272727293 -1.0 0.0
0.29292929292929304 -1.0 0.0
0.31313131313131315 -1.0 0.0
0.3333333333333335 -1.0 0.0
0.3535353535353536 -1.0 0.0
0.3737373737373739 -1.0 0.0
0.39393939393939403 -1.0 0.0
0.41414141414141437 -1.0 0.0
0.4343434343434345 -1.0 0.0
0.4545454545454546 -1.0 0.0
0.4747474747474749 -1.0 0.0
0.49494949494949503 -1.0 0.0
0.5151515151515154 -1.0 0.0
0.5353535353535355 -1.0 0.0
0.5555555555555556 -1.0 0.0
0.5757575757575759 -1.0 0.0
0.595959595959596 -1.0 0.0
0.6161616161616164 -1.0 0.0
0.6363636363636365 -1.0 0.0
0.6565656565656568 -1.0 0.0
0.6767676767676769 -1.0 0.0
0.696969696969697 -1.0 0.0
0.7171717171717173 -1.0 0.0
0.7373737373737375 -1.0 0.0
0.7575757575757578 -1.0 0.0
0.7777777777777779 -1.0 0.0
0.7979797979797982 -1.0 0.0
0.8181818181818183 -1.0 0.0
0.8383838383838385 -1.0 0.0
0.8585858585858588 -1.0 0.0
0.8787878787878789 -1.0 0.0
0.8989898989898992 -1.0 0.0
0.9191919191919193 -1.0 0.0
0.9393939393939394 -1.0 0.0
0.9595959595959598 -1.0 0.0
0.9797979797979799 -1.0 0.0
1.0 -1.0 0.0
-1.0 -0.9797979797979798 0.0
-0.9797979797979798 -0.9797979797979798 0.0
-0.9595959595959596 -0.9797979797979798 0.0
-0.9393939393939394 -0.9797979797979798 0.0
-0.9191919191919192 -0.9797979797979798 0.0
-0.898989898989899 -0.9797979797979798 0.0
-0.8787878787878788 -0.9797979797979798 0.0
-0.8585858585858586 -0.9797979797979798 0.0
-0.8383838383838383 -0.9797979797979798 0.0
-0.8181818181818181 -0.9797979797979798 0.0
-0.797979797979798 -0.9797979797979798 0.0
-0.7777777777777778 -0.9797979797979798 0.0
-0.7575757575757576 -0.9797979797979798 0.0
-0.7373737373737373 -0.9797979797979798 0.0
-0.7171717171717171 -0.9797979797979798 0.0
-0.696969696969697 -0.9797979797979798 0.0
-0.6767676767676767 -0.9797979797979798 0.0
-0.6565656565656566 -0.9797979797979798 0.0
-0.6363636363636364 -0.9797979797979798 0.0
-0.6161616161616161 -0.9797979797979798 0.0
-0.5959595959595959 -0.9797979797979798 0.0
-0.5757575757575757 -0.9797979797979798 0.0
-0.5555555555555556 -0.9797979797979798 0.0
-0.5353535353535352 -0.9797979797979798 0.0
-0.5151515151515151 -0.9797979797979798 0.0
-0.4949494949494949 -0.9797979797979798 0.0
-0.4747474747474747 -0.9797979797979798 0.0
-0.4545454545454545 -0.9797979797979798 0.0
-0.43434343434343425 -0.9797979797979798 0.0
-0.41414141414141414 -0.9797979797979798 0.0
-0.3939393939393939 -0.9797979797979798 0.0
-0.3737373737373737 -0.9797979797979798 0.0
-0.3535353535353535 -0.9797979797979798 0.0
-0.33333333333333326 -0.9797979797979798 0.0
-0.31313131313131304 -0.9797979797979798 0.0
-0.2929292929292928 -0.9797979797979798 0.0
-0.2727272727272727 -0.9797979797979798 0.0
-0.2525252525252525 -0.9797979797979798 0.0
-0.23232323232323226 -0.9797979797979798 0.0
-0.21212121212121204 -0.9797979797979798 0.0
-0.19191919191919182 -0.9797979797979798 0.0
-0.1717171717171716 -0.9797979797979798 0.0
-0.1515151515151515 -0.9797979797979798 0.0
-0.13131313131313127 -0.9797979797979798 0.0
-0.11111111111111105 -0.9797979797979798 0.0
-0.09090909090909083 -0.9797979797979798 0.0
-0.07070707070707061 -0.9797979797979798 0.0
-0.050505050505050386 -0.9797979797979798 0.0
-0.030303030303030276 -0.9797979797979798 0.0
-0.010101010101010055 -0.9797979797979798 0.0
0.010101010101010166 -0.9797979797979798 0.0
0.030303030303030498 -0.9797979797979798 0.0
0.05050505050505061 -0.9797979797979798 0.0
0.07070707070707072 -0.9797979797979798 0.0
0.09090909090909105 -0.9797979797979798 0.0
0.11111111111111116 -0.9797979797979798 0.0
0.1313131313131315 -0.9797979797979798 0.0
0.1515151515151516 -0.9797979797979798 0.0
0.1717171717171717 -0.9797979797979798 0.0
0.19191919191919204 -0.9797979797979798 0.0
0.21212121212121215 -0.9797979797979798 0.0
0.2323232323232325 -0.9797979797979798 0.0
0.2525252525252526 -0.9797979797979798 0.0
0.27272727272727293 -0.9797979797979798 0.0
0.29292929292929304 -0.9797979797979798 0.0
0.31313131313131315 -0.9797979797979798 0.0
0.3333333333333335 -0.9797979797979798 0.0
0.3535353535353536 -0.9797979797979798 0.0
0.3737373737373739 -0.9797979797979798 0.0
0.39393939393939403 -0.9797979797979798 0.0
0.41414141414141437 -0.9797979797979798 0.0
0.4343434343434345 -0.9797979797979798 0.0
0.4545454545454546 -0.9797979797979798 0.0
0.4747474747474749 -0.9797979797979798 0.0
0.49494949494949503 -0.9797979797979798 0.0
0.5151515151515154 -0.9797979797979798 0.0
0.5353535353535355 -0.9797979797979798 0.0
0.5555555555555556 -0.9797979797979798 0.0
0.5757575757575759 -0.9797979797979798 0.0
0.595959595959596 -0.9797979797979798 0.0
0.6161616161616164 -0.9797979797979798 0.0
0.6363636363636365 -0.9797979797979798 0.0
0.6565656565656568 -0.9797979797979798 0.0
0.6767676767676769 -0.9797979797979798 0.0
0.696969696969697 -0.9797979797979798 0.0
0.7171717171717173 -0.9797979797979798 0.0
0.7373737373737375 -0.9797979797979798 0.0
0.7575757575757578 -0.9797979797979798 0.0
0.7777777777777779 -0.9797979797979798 0.0
0.7979797979797982 -0.9797979797979798 0.0
0.8181818181818183 -0.9797979797979798 0.0
0.8383838383838385 -0.9797979797979798 0.0
0.8585858585858588 -0.9797979797979798 0.0
0.8787878787878789 -0.9797979797979798 0.0
0.8989898989898992 -0.9797979797979798 0.0
0.9191919191919193 -0.9797979797979798 0.0
0.9393939393939394 -0.9797979797979798 0.0
0.9595959595959598 -0.9797979797979798 0.0
0.9797979797979799 -0.9797979797979798 0.0
1.0 -0.9797979797979798 0.0
-1.0 -0.9595959595959596 0.0
-0.9797979797979798 -0.9595959595959596 0.0
-0.9595959595959596 -0.9595959595959596 0.0
-0.9393939393939394 -0.9595959595959596 0.0
-0.9191919191919192 -0.9595959595959596 0.0
-0.898989898989899 -0.9595959595959596 0.0
-0.8787878787878788 -0.9595959595959596 0.0
-0.8585858585858586 -0.9595959595959596 0.0
-0.8383838383838383 -0.9595959595959596 0.0
-0.8181818181818181 -0.9595959595959596 0.0
-0.797979797979798 -0.9595959595959596 0.0
-0.7777777777777778 -0.9595959595959596 0.0
-0.7575757575757576 -0.9595959595959596 0.0
-0.7373737373737373 -0.9595959595959596 0.0
-0.7171717171717171 -0.9595959595959596 0.0
-0.696969696969697 -0.9595959595959596 0.0
-0.6767676767676767 -0.9595959595959596 0.0
-0.6565656565656566 -0.9595959595959596 0.0
-0.6363636363636364 -0.9595959595959596 0.0
-0.6161616161616161 -0.9595959595959596 0.0
-0.5959595959595959 -0.9595959595959596 0.0
-0.5757575757575757 -0.9595959595959596 0.0
-0.5555555555555556 -0.9595959595959596 0.0
-0.5353535353535352 -0.9595959595959596 0.0
-0.5151515151515151 -0.9595959595959596 0.0
-0.4949494949494949 -0.9595959595959596 0.0
-0.4747474747474747 -0.9595959595959596 0.0
-0.4545454545454545 -0.9595959595959596 0.0
-0.43434343434343425 -0.9595959595959596 0.0
-0.41414141414141414 -0.9595959595959596 0.0
-0.3939393939393939 -0.9595959595959596 0.0
-0.3737373737373737 -0.9595959595959596 0.0
-0.3535353535353535 -0.9595959595959596 0.0
-0.33333333333333326 -0.9595959595959596 0.0
-0.31313131313131304 -0.9595959595959596 0.0
-0.2929292929292928 -0.9595959595959596 0.0
-0.2727272727272727 -0.9595959595959596 0.0
-0.2525252525252525 -0.9595959595959596 0.0
-0.23232323232323226 -0.9595959595959596 0.0
-0.21212121212121204 -0.9595959595959596 0.0
-0.19191919191919182 -0.9595959595959596 0.0
-0.1717171717171716 -0.9595959595959596 0.0
-0.1515151515151515 -0.9595959595959596 0.0
-0.13131313131313127 -0.9595959595959596 0.0
-0.11111111111111105 -0.9595959595959596 0.0
-0.09090909090909083 -0.9595959595959596 0.0
-0.07070707070707061 -0.9595959595959596 0.0
-0.050505050505050386 -0.9595959595959596 0.0
-0.030303030303030276 -0.9595959595959596 0.0
-0.010101010101010055 -0.9595959595959596 0.0
0.010101010101010166 -0.9595959595959596 0.0
0.030303030303030498 -0.9595959595959596 0.0
0.05050505050505061 -0.9595959595959596 0.0
0.07070707070707072 -0.9595959595959596 0.0
0.09090909090909105 -0.9595959595959596 0.0
0.11111111111111116 -0.9595959595959596 0.0
0.1313131313131315 -0.9595959595959596 0.0
0.1515151515151516 -0.9595959595959596 0.0
0.1717171717171717 -0.9595959595959596 0.0
0.19191919191919204 -0.9595959595959596 0.0
0.21212121212121215 -0.9595959595959596 0.0
[...]
POINT_DATA 10000
SCALARS u float 1
LOOKUP_TABLE default
0.3287217915058136
0.26201337575912476
0.19422462582588196
0.12634992599487305
0.05888359993696213
-0.00805053859949112
-0.07452414184808731
-0.14061960577964783
-0.2062441110610962
-0.2710096538066864
-0.33414241671562195
-0.39446839690208435
-0.4504726231098175
-0.5004130005836487
-0.5424898266792297
-0.5750285983085632
-0.596671998500824
-0.6065342426300049
-0.6043131947517395
-0.5903248190879822
-0.5654472708702087
-0.530971884727478
-0.4883892238140106
-0.4391613304615021
-0.3845497667789459
-0.32553473114967346
-0.2628508508205414
-0.1970718502998352
-0.12873533368110657
-0.05843748897314072
0.01310933381319046
0.08505206555128098
0.15640601515769958
0.2260812520980835
0.29291436076164246
0.35570505261421204
0.4132592976093292
0.4644339978694916
0.5081789493560791
0.5435807108879089
0.5698986649513245
0.5865905284881592
0.5933300852775574
0.5900108814239502
0.5767412185668945
0.553839921951294
0.521809458732605
0.4813157320022583
0.43315815925598145
0.37823161482810974
0.3174976408481598
0.2519548833370209
0.18261638283729553
0.11050529032945633
0.03664965182542801
-0.03790871053934097
-0.11210603266954422
-0.18484431505203247
-0.25498560070991516
-0.3213469684123993
-0.38270825147628784
-0.43783465027809143
-0.48552772402763367
-0.5247079730033875
-0.5545188784599304
-0.5744219422340393
-0.5842455625534058
-0.5841674208641052
-0.574636697769165
-0.5562810301780701
-0.5298013091087341
-0.49591293931007385
-0.4552869498729706
-0.4085381329059601
-0.35621604323387146
-0.29882314801216125
-0.23683783411979675
-0.1707509458065033
-0.10111985355615616
-0.028623320162296295
0.045880772173404694
0.12130748480558395
0.19632577896118164
0.26937389373779297
0.3387197256088257
0.40256184339523315
0.4591512382030487
0.5069277882575989
0.544642448425293
0.5714477896690369
0.5869622826576233
0.5912878513336182
0.5849952697753906
0.5690836310386658
0.5449190139770508
0.5141556859016418
0.4786551594734192
0.4403923451900482
0.40137115120887756
0.36354199051856995
0.26545250415802
0.21145445108413696
0.1570429801940918
0.1028289720416069
0.04901578277349472
-0.004471160471439362
-0.057835377752780914
-0.11125064641237259
-0.16471946239471436
-0.2179565727710724
-0.2703079283237457
-0.32073137164115906
-0.3678383529186249
-0.4100053012371063
-0.44554242491722107
-0.4728952944278717
-0.4908451735973358
-0.4986654818058014
-0.49621817469596863
-0.48394569754600525
-0.4627697765827179
-0.4339130222797394
-0.39868873357772827
-0.35830429196357727
-0.3137514293193817
-0.26577720046043396
-0.21493592858314514
-0.16167676448822021
-0.10642961412668228
-0.049669764935970306
0.008051954209804535
0.06610200554132462
0.12376793473958969
0.18026870489120483
0.2347622811794281
0.28635528683662415
0.3341129720211029
0.37708255648612976
0.4143294394016266
0.4449731707572937
0.46824055910110474
0.4835037887096405
0.49032092094421387
0.4884609282016754
0.4779137670993805
0.45889899134635925
0.43185290694236755
0.39740875363349915
0.35636550188064575
0.30964410305023193
0.25823619961738586
0.20315736532211304
0.14539897441864014
0.08590113371610641
0.025539390742778778
-0.034874327480793
-0.09457352012395859
-0.1528150737285614
-0.2088535726070404
-0.2619151771068573
-0.3111828863620758
-0.35578182339668274
-0.39479339122772217
-0.42729833722114563
-0.45245662331581116
-0.4696168005466461
-0.4784102737903595
-0.47880515456199646
-0.4710812270641327
-0.45576366782188416
-0.43352392315864563
-0.40509286522865295
-0.3711903989315033
-0.33247268199920654
-0.28951296210289
-0.24278932809829712
-0.19269463419914246
-0.1395634114742279
-0.08371726423501968
-0.025526396930217743
0.034519173204898834
0.09573864191770554
0.15720543265342712
0.21772417426109314
0.2758583426475525
0.3300001323223114
0.3784850239753723
0.4197334945201874
0.4523922801017761
0.4754721224308014
0.48842737078666687
0.49121323227882385
0.4842927157878876
0.4685939848423004
0.4454520046710968
0.4165235757827759
0.3836803734302521
0.34891393780708313
0.3142366111278534
0.28157761693000793
0.19992807507514954
0.15954193472862244
0.11905830353498459
0.07877441495656967
0.038714610040187836
-0.0012690499424934387
-0.04138488322496414
-0.0817953422665596
-0.12251199036836624
-0.16330862045288086
-0.20365795493125916
-0.24270614981651306
-0.2793058156967163
-0.3121143877506256
-0.3397364318370819
-0.36091116070747375
-0.3746872842311859
-0.38055357336997986
-0.378492146730423
-0.36894235014915466
-0.35268425941467285
-0.330674946308136
-0.30389150977134705
-0.27320390939712524
-0.2393268346786499
-0.20282617211341858
-0.16416561603546143
-0.12375291436910629
-0.08198333531618118
-0.03925608843564987
0.004022248089313507
0.04743296653032303
0.09054306894540787
0.13289764523506165
0.17399650812149048
0.21327877044677734
0.2501075565814972
0.28377047181129456
0.3134949803352356
0.33848831057548523
0.3579888343811035
0.37132278084754944
0.3779619634151459
0.3775632381439209
0.37000516057014465
0.3553959131240845
0.3340783417224884
0.3066125512123108
0.2737411558628082
0.2363472878932953
0.19539621472358704
0.15186619758605957
0.1066921278834343
0.060714758932590485
0.01465461403131485
-0.03089217096567154
-0.07543546706438065
-0.11855416744947433
-0.15985974669456482
-0.19895204901695251
-0.2353876531124115
-0.2686486840248108
-0.29812800884246826
-0.3231360614299774
-0.3429490625858307
-0.3568923771381378
-0.36446139216423035
-0.36541250348091125
-0.35981568694114685
-0.34802958369255066
-0.3306291401386261
-0.30830928683280945
-0.28179222345352173
-0.2517533004283905
-0.21877354383468628
-0.1833021640777588
-0.14566001296043396
-0.10604789108037949
-0.0645877793431282
-0.021384425461292267
0.02339697629213333
0.06944545358419418
0.11622697860002518
0.16293618083000183
0.20848676562309265
0.2515493333339691
0.2906438708305359
0.3242771327495575
0.35108688473701477
0.3699921667575836
0.38031867146492004
0.38187161087989807
0.3749692738056183
0.36042317748069763
0.3394729197025299
0.3137064278125763
0.28494375944137573
0.25512999296188354
0.22622373700141907
0.20008745789527893
0.13299748301506042
0.10675369948148727
0.08045663684606552
0.054170601069927216
0.027836792171001434
0.0013326629996299744
-0.025465257465839386
-0.05262640863656998
-0.08010903745889664
-0.10771242529153824
-0.1350327730178833
-0.16145840287208557
-0.18618658185005188
-0.2083023190498352
-0.2268770933151245
-0.24110513925552368
-0.25040915608406067
-0.25451111793518066
-0.2534433901309967
-0.24749591946601868
-0.2371322214603424
-0.2228919267654419
-0.20531389117240906
-0.18490034341812134
-0.16211214661598206
-0.13738679885864258
-0.11115214973688126
-0.08383043855428696
-0.05581701546907425
-0.02745840698480606
0.000965513288974762
0.029244624078273773
0.0572207048535347
0.08475501090288162
0.11169076710939407
0.13780692219734192
0.16278240084648132
0.18617987632751465
0.2074403166770935
0.2259141504764557
0.24091073870658875
0.2517598569393158
0.25788408517837524
0.2588590085506439
0.2544574737548828
0.2446785867214203
0.22974893450737
0.21011614799499512
0.1864149272441864
0.15942180156707764
0.1300022304058075
0.09903157502412796
0.06733924895524979
0.03563787788152695
0.004490174353122711
-0.025706849992275238
-0.05470653623342514
-0.08237094432115555
-0.10862421244382858
-0.13339707255363464
-0.15658113360404968
-0.1779886782169342
-0.19732171297073364
-0.21416214108467102
-0.22797563672065735
-0.23817002773284912
-0.24418893456459045
-0.24563267827033997
-0.24235376715660095
-0.23449888825416565
-0.222477525472641
-0.20688101649284363
-0.1883784830570221
-0.16762199997901917
-0.14516940712928772
-0.12143418937921524
-0.09666276723146439
-0.07094082981348038
-0.04422459751367569
-0.016399584710597992
0.012640349566936493
0.04290435463190079
0.0742221549153328
0.10616996139287949
0.13803642988204956
0.1688368320465088
0.19737207889556885
0.22233429551124573
0.24245530366897583
0.2566487789154053
0.26416149735450745
0.2646626830101013
0.2583140730857849
0.24576127529144287
0.2280919849872589
0.20675012469291687
0.18343058228492737
0.15996116399765015
0.13818255066871643
0.11984068900346756
0.06526222079992294
0.05335833877325058
0.04129057377576828
0.028956376016139984
0.016279570758342743
0.0032245442271232605
-0.010192789137363434
-0.023902036249637604
-0.03777436167001724
-0.0516112819314003
-0.06514359265565872
-0.07803816348314285
-0.08991975337266922
-0.10041365772485733
-0.10919103771448135
-0.11600757390260696
-0.12071643024682999
-0.12326128035783768
-0.12363981455564499
-0.12187544256448746
-0.11799592524766922
-0.11204379051923752
-0.10409349948167801
-0.09428756684064865
-0.08285758644342422
-0.07014084607362747
-0.05655141919851303
-0.042531125247478485
-0.028477676212787628
-0.014692164957523346
-0.001333676278591156
0.011577002704143524
0.02413218468427658
0.03649016469717026
0.04881250113248825
0.06120532006025314
0.07366671413183212
0.08605270832777023
0.0980590209364891
0.10923533886671066
0.11902398616075516
0.12681981921195984
0.13204750418663025
0.13423150777816772
0.13305816054344177
0.12841323018074036
0.12039371579885483
0.10930121690034866
0.09561572223901749
0.07994868606328964
0.0629916563630104
0.04545459896326065
0.027997948229312897
0.011170633137226105
-0.004631765186786652
-0.01919863373041153
-0.03249210864305496
-0.04461594671010971
-0.05575796216726303
-0.06613465398550034
-0.07592950016260147
-0.08525101095438004
-0.09408950060606003
-0.10230187326669693
-0.10959028452634811
-0.11552437394857407
-0.1195986345410347
-0.12133624404668808
-0.1204158142209053
-0.11675498634576797
-0.11054327338933945
-0.10219796746969223
-0.09226510673761368
-0.08131790906190872
-0.06985414773225784
-0.05822534114122391
-0.046601615846157074
-0.034964241087436676
-0.0231330469250679
-0.010820843279361725
0.0022984519600868225
0.016500256955623627
0.031927578151226044
0.04850981384515762
0.06591983884572983
0.08355102688074112
0.10055024176836014
0.11589666455984116
0.12851175665855408
0.13740718364715576
0.14181441068649292
0.14131271839141846
0.13590633869171143
0.1260451376438141
0.1126069650053978
0.09682785719633102
0.08019710332155228
0.0643526241183281
0.05094524472951889
0.04154285043478012
-0.002854682505130768
-0.0004941001534461975
0.0015555545687675476
0.00307532399892807
0.004000775516033173
0.004406355321407318
0.004460655152797699
0.0043825432658195496
0.004396490752696991
0.004690609872341156
0.005387119948863983
0.006506018340587616
0.007944725453853607
0.009475819766521454
0.010776005685329437
0.011494122445583344
0.011348627507686615
0.010223113000392914
0.008216433227062225
0.005631051957607269
0.002898983657360077
0.0004684850573539734
-0.0012981817126274109
-0.002213306725025177
-0.002302207052707672
-0.0017920508980751038
-0.0010596886277198792
-0.0005313679575920105
-0.0005822405219078064
-0.0014521107077598572
-0.003190077841281891
-0.0056490227580070496
-0.008517377078533173
-0.011384375393390656
-0.01380310207605362
-0.015368618071079254
-0.015779651701450348
-0.014881379902362823
-0.012699760496616364
-0.00943835824728012
-0.005462668836116791
-0.001246817409992218
0.0026904866099357605
0.005865804851055145
0.007897906005382538
0.008560605347156525
0.007805250585079193
0.0057607367634773254
0.002711556851863861
-0.0009437128901481628
-0.004736937582492828
-0.008186303079128265
-0.010851077735424042
-0.012385077774524689
-0.012583054602146149
-0.011413909494876862
-0.009023763239383698
-0.005713991820812225
-0.0018952861428260803
0.0019782409071922302
0.005469851195812225
0.00821494311094284
0.009959466755390167
0.010591275990009308
0.01016070693731308
0.008891336619853973
0.007154189050197601
0.005405791103839874
0.004073880612850189
0.0034419074654579163
0.0035679563879966736
0.004272498190402985
0.005199961364269257
0.005924902856349945
0.00605686753988266
0.005335606634616852
0.0036792680621147156
0.001203097403049469
-0.0018021836876869202
-0.004912756383419037
-0.007632873952388763
-0.00947456806898117
-0.010036833584308624
-0.00906815379858017
-0.006540410220623016
-0.0026660338044166565
0.0020909085869789124
0.007064349949359894
0.011461742222309113
0.014479048550128937
0.015425525605678558
0.01384388655424118
0.00960182398557663
0.0029480978846549988
-0.005489654839038849
-0.014749594032764435
-0.023618705570697784
-0.03073149174451828
-0.034690119326114655
-0.03417167812585831
-0.07100562006235123
-0.05468342453241348
-0.038734711706638336
-0.023477979004383087
-0.008965469896793365
0.004967264831066132
0.018619351089000702
0.032329730689525604
0.04638903588056564
0.06095000356435776
0.075957290828228
0.09109338372945786
0.10576855391263962
0.1191582903265953
0.1303189992904663
0.1383616328239441
0.14264285564422607
0.14292684197425842
0.1394307017326355
0.1327580213546753
0.12373774498701096
0.11322984844446182
0.10196023434400558
0.09040508419275284
0.07874814420938492
0.06690571457147598
0.054599277675151825
0.04148056358098984
0.02724733203649521
0.011750198900699615
-0.004951082170009613
-0.02256835252046585
-0.040614910423755646
-0.058469243347644806
-0.0754474475979805
-0.09088631719350815
-0.1042058989405632
-0.11496592313051224
-0.12290316075086594
-0.12794896960258484
-0.1302272379398346
-0.1300240159034729
-0.12774115800857544
-0.12382446974515915
-0.11869514733552933
-0.11268708854913712
-0.10600907355546951
-0.09872988611459732
-0.09079273790121078
-0.08204541355371475
-0.07227910310029984
-0.06127644330263138
-0.048850543797016144
-0.03489454835653305
-0.019415147602558136
-0.002566806972026825
0.01533227413892746
0.03380986303091049
0.052274905145168304
0.07007361203432083
0.08655550330877304
0.10113031417131424
0.11331633478403091
0.12276836484670639
0.1293058693408966
0.13293132185935974
0.13383838534355164
0.13238421082496643
0.12901702523231506
0.12416525930166245
0.11812112480401993
0.11097799986600876
0.10263625532388687
0.0928826555609703
0.08149006217718124
0.06832318753004074
0.05340469628572464
0.03694076091051102
0.019317351281642914
0.0010640844702720642
-0.017195798456668854
-0.034810878336429596
-0.051162607967853546
-0.06573457270860672
-0.07816176861524582
-0.08828466385602951
-0.09615982323884964
-0.10205522924661636
-0.10641013830900192
-0.10976388305425644
-0.11264500766992569
-0.11548057943582535
-0.1184893324971199
-0.1216190829873085
-0.12451428920030594
-0.12653395533561707
-0.12680506706237793
-0.12430516630411148
-0.117961086332798
-0.10674605518579483
-0.13881829380989075
-0.10902509838342667
-0.07948336750268936
-0.05061805993318558
-0.02250409871339798
0.005062364041805267
0.03245028108358383
0.06005745381116867
0.0881810113787651
0.11688651889562607
0.1459059715270996
0.1745799481868744
0.20186150074005127
0.22640925645828247
0.24677646160125732
0.2616618573665619
0.27016934752464294
0.2719894051551819
0.26742658019065857
0.2572897672653198
0.24267134070396423
0.22471535205841064
0.20441752672195435
0.1824992299079895
0.15936648845672607
0.13512679934501648
0.10968170315027237
0.08284098654985428
0.05444135516881943
0.024457670748233795
-0.0069306716322898865
-0.03931719809770584
-0.07207990437746048
-0.10443723946809769
-0.13551807403564453
-0.16444242000579834
-0.19038832187652588
-0.21265164017677307
-0.23069298267364502
-0.24416163563728333
-0.25291451811790466
-0.25700780749320984
-0.25667473673820496
-0.2522774636745453
-0.24424082040786743
-0.23299258947372437
-0.2189088761806488
-0.20227530598640442
-0.18328922986984253
-0.16206824779510498
-0.1386832892894745
-0.1131967082619667
-0.08569123595952988
-0.056314386427402496
-0.025303490459918976
0.006990067660808563
0.04007378965616226
0.0733192190527916
0.10598113387823105
0.13723811507225037
0.16625702381134033
0.19225355982780457
0.21454334259033203
0.23257789015769958
0.24597245454788208
0.2545248866081238
0.25824034214019775
0.25733673572540283
0.2522085905075073
0.24335378408432007
0.23125699162483215
0.21628180146217346
0.1986243724822998
0.17833811044692993
0.15541285276412964
0.12987729907035828
0.10187303274869919
0.07170077413320541
0.039829157292842865
0.006872229278087616
-0.026448480784893036
-0.05935300141572952
-0.09104806929826736
-0.12078838795423508
-0.14791923761367798
-0.1719265878200531
-0.19247552752494812
-0.20942509174346924
-0.22282391786575317
-0.23288258910179138
-0.2399013340473175
-0.24420779943466187
-0.246052086353302
-0.24554860591888428
-0.2426135241985321
-0.23695197701454163
-0.22807946801185608
-0.21537092328071594
-0.1981353461742401
-0.1756957769393921
-0.20579949021339417
-0.16319406032562256
-0.12045598775148392
-0.0781480148434639
-0.03642473369836807
0.004877887666225433
0.04610540717840195
0.08762364834547043
0.12964949011802673
0.17209592461585999
0.21445336937904358
0.2557414174079895
0.29453790187835693
0.3291248083114624
0.35772404074668884
0.3787945806980133
0.3912968933582306
0.39487120509147644
0.38983988761901855
0.37707915902137756
0.3577859103679657
0.3332401514053345
0.30460497736930847
0.2728056013584137
0.2384726107120514
0.2019672393798828
0.16344022750854492
0.12294077128171921
0.08051695674657822
0.03631310909986496
-0.009358309209346771
-0.05597684532403946
-0.10282015055418015
-0.1489902138710022
-0.19347763061523438
-0.2352299988269806
-0.27322229743003845
-0.3065207898616791
-0.3343315124511719
-0.3560374677181244
-0.37122654914855957
-0.3797088861465454
-0.3815169632434845
-0.3768848776817322
-0.3662046492099762
-0.3499700129032135
-0.32871127128601074
-0.3029424846172333
-0.27312949299812317
-0.23967602849006653
-0.202946275472641
-0.16328170895576477
-0.12103725224733353
-0.07661039382219315
-0.030469365417957306
0.01682431250810623
0.06460369378328323
0.11208107322454453
0.15836694836616516
0.20249289274215698
0.24346905946731567
0.2803386151790619
0.312239408493042
0.3384450078010559
0.358394593000412
0.37171417474746704
0.3782401978969574
0.378042072057724
0.37142425775527954
0.35888853669166565
0.3410438597202301
0.3184889256954193
0.2917167544364929
0.2610827684402466
0.226833313703537
0.18919548392295837
0.14844998717308044
0.10500014573335648
0.05939199775457382
0.012309901416301727
-0.035441674292087555
-0.08297658711671829
-0.12935805320739746
-0.1736431121826172
-0.2149239480495453
-0.2523731291294098
-0.28528961539268494
-0.3131389021873474
-0.3355761170387268
-0.35245242714881897
-0.36380162835121155
-0.36978277564048767
-0.3706328570842743
-0.3665817975997925
-0.357793927192688
-0.3443233072757721
-0.3260914981365204
-0.30290818214416504
-0.27450352907180786
-0.24059376120567322
-0.27126890420913696
-0.21666699647903442
-0.16124406456947327
-0.10573837906122208
-0.0504615381360054
0.004605911672115326
0.0596725270152092
0.11495759338140488
0.17049828171730042
0.22599056363105774
0.2806730568408966
0.3332951068878174
0.38218867778778076
0.4254353940486908
0.46112701296806335
0.4876408278942108
0.5038891434669495
0.5094521641731262
0.5045879483222961
0.49009600281715393
0.4671274721622467
0.43696507811546326
0.4008481502532959
0.35985276103019714
0.31483688950538635
0.26643866300582886
0.21511974930763245
0.16123205423355103
0.10509630292654037
0.04707837849855423
-0.012342803180217743
-0.07253412157297134
-0.13268300890922546
-0.19181212782859802
-0.24881193041801453
-0.3025040328502655
-0.3517019748687744
-0.3952803611755371
-0.4322258532047272
-0.4616861045360565
-0.4830038845539093
-0.49575379490852356
-0.4997577965259552
-0.49509796500205994
-0.4820946753025055
-0.4612685739994049
-0.43327662348747253
-0.3988417088985443
-0.3586967885494232
-0.31354501843452454
-0.2640446126461029
-0.21082040667533875
-0.1544891595840454
-0.0956864133477211
-0.03510034829378128
0.026508130133152008
0.0882907584309578
0.14930200576782227
0.20850440859794617
0.2647925913333893
0.3170314431190491
0.36411145329475403
0.4050111770629883
0.438847154378891
0.4649065434932709
0.4826773405075073
0.4918626546859741
0.4924093186855316
0.4845275282859802
0.4686831533908844
0.4455452859401703
0.41588589549064636
0.38046005368232727
0.3399183750152588
0.29479125142097473
0.2455238401889801
0.19256189465522766
0.13641813397407532
0.07771836966276169