# vtk DataFile Version 3.0
2D PINN Solution
ASCII
DATASET STRUCTURED_GRID
DIMENSIONS 100 100 1
POINTS 10000 float
-1.0 -1.0 0.0
-0.9797979797979798 -1.0 0.0
-0.9595959595959596 -1.0 0.0
-0.9393939393939394 -1.0 0.0
-0.9191919191919192 -1.0 0.0
-0.898989898989899 -1.0 0.0
-0.8787878787878788 -1.0 0.0
-0.8585858585858586 -1.0 0.0
-0.8383838383838383 -1.0 0.0
-0.8181818181818181 -1.0 0.0
-0.797979797979798 -1.0 0.0
-0.7777777777777778 -1.0 0.0
-0.7575757575757576 -1.0 0.0
-0.7373737373737373 -1.0 0.0
-0.7171717171717171 -1.0 0.0
-0.696969696969697 -1.0 0.0
-0.6767676767676767 -1.0 0.0
-0.6565656565656566 -1.0 0.0
-0.6363636363636364 -1.0 0.0
-0.6161616161616161 -1.0 0.0
-0.5959595959595959 -1.0 0.0
-0.5757575757575757 -1.0 0.0
-0.5555555555555556 -1.0 0.0
-0.5353535353535352 -1.0 0.0
-0.5151515151515151 -1.0 0.0
-0.4949494949494949 -1.0 0.0
-0.4747474747474747 -1.0 0.0
-0.4545454545454545 -1.0 0.0
-0.43434343434343425 -1.0 0.0
-0.41414141414141414 -1.0 0.0
-0.3939393939393939 -1.0 0.0
-0.3737373737373737 -1.0 0.0
-0.3535353535353535 -1.0 0.0
-0.33333333333333326 -1.0 0.0
-0.31313131313131304 -1.0 0.0
-0.2929292929292928 -1.0 0.0
-0.2727272727272727 -1.0 0.0
-0.2525252525252525 -1.0 0.0
-0.23232323232323226 -1.0 0.0
-0.21212121212121204 -1.0 0.0
-0.19191919191919182 -1.0 0.0
-0.1717171717171716 -1.0 0.0
-0.1515151515151515 -1.0 0.0
-0.13131313131313127 -1.0 0.0
-0.11111111111111105 -1.0 0.0
-0.09090909090909083 -1.0 0.0
-0.07070707070707061 -1.0 0.0
-0.050505050505050386 -1.0 0.0
-0.030303030303030276 -1.0 0.0
-0.010101010101010055 -1.0 0.0
0.010101010101010166 -1.0 0.0
0.030303030303030498 -1.0 0.0
0.05050505050505061 -1.0 0.0
0.07070707070707072 -1.0 0.0
0.09090909090909105 -1.0 0.0
0.11111111111111116 -1.0 0.0
0.1313131313131315 -1.0 0.0
0.1515151515151516 -1.0 0.0
0.1717171717171717 -1.0 0.0
0.19191919191919204 -1.0 0.0
0.21212121212121215 -1.0 0.0
0.2323232323232325 -1.0 0.0
0.2525252525252526 -1.0 0.0
0.27272727272727293 -1.0 0.0
0.29292929292929304 -1.0 0.0
0.31313131313131315 -1.0 0.0
0.3333333333333335 -1.0 0.0
0.3535353535353536 -1.0 0.0
0.3737373737373739 -1.0 0.0
0.39393939393939403 -1.0 0.0
0.41414141414141437 -1.0 0.0
0.4343434343434345 -1.0 0.0
0.4545454545454546 -1.0 0.0
0.4747474747474749 -1.0 0.0
0.49494949494949503 -1.0 0.0
0.5151515151515154 -1.0 0.0
0.5353535353535355 -1.0 0.0
0.5555555555555556 -1.0 0.0
0.5757575757575759 -1.0 0.0
0.595959595959596 -1.0 0.0
0.6161616161616164 -1.0 0.0
0.6363636363636365 -1.0 0.0
0.6565656565656568 -1.0 0.0
0.6767676767676769 -1.0 0.0
0.696969696969697 -1.0 0.0
0.7171717171717173 -1.0 0.0
0.7373737373737375 -1.0 0.0
0.7575757575757578 -1.0 0.0
0.7777777777777779 -1.0 0.0
0.7979797979797982 -1.0 0.0
0.8181818181818183 -1.0 0.0
0.8383838383838385 -1.0 0.0
0.8585858585858588 -1.0 0.0
0.8787878787878789 -1.0 0.0
0.8989898989898992 -1.0 0.0
0.9191919191919193 -1.0 0.0
0.9393939393939394 -1.0 0.0
0.9595959595959598 -1.0 0.0
0.9797979797979799 -1.0 0.0
1.0 -1.0 0.0
-1.0 -0.9797979797979798 0.0
-0.9797979797979798 -0.9797979797979798 0.0
-0.9595959595959596 -0.9797979797979798 0.0
-0.9393939393939394 -0.9797979797979798 0.0
-0.9191919191919192 -0.9797979797979798 0.0
-0.898989898989899 -0.9797979797979798 0.0
-0.8787878787878788 -0.9797979797979798 0.0
-0.8585858585858586 -0.9797979797979798 0.0
-0.8383838383838383 -0.9797979797979798 0.0
-0.8181818181818181 -0.9797979797979798 0.0
-0.797979797979798 -0.9797979797979798 0.0
-0.7777777777777778 -0.9797979797979798 0.0
-0.7575757575757576 -0.9797979797979798 0.0
-0.7373737373737373 -0.9797979797979798 0.0
-0.7171717171717171 -0.9797979797979798 0.0
-0.696969696969697 -0.9797979797979798 0.0
-0.6767676767676767 -0.9797979797979798 0.0
-0.6565656565656566 -0.9797979797979798 0.0
-0.6363636363636364 -0.9797979797979798 0.0
-0.6161616161616161 -0.9797979797979798 0.0
-0.5959595959595959 -0.9797979797979798 0.0
-0.5757575757575757 -0.9797979797979798 0.0
-0.5555555555555556 -0.9797979797979798 0.0
-0.5353535353535352 -0.9797979797979798 0.0
-0.5151515151515151 -0.9797979797979798 0.0
-0.4949494949494949 -0.9797979797979798 0.0
-0.4747474747474747 -0.9797979797979798 0.0
-0.4545454545454545 -0.9797979797979798 0.0
-0.43434343434343425 -0.9797979797979798 0.0
-0.41414141414141414 -0.9797979797979798 0.0
-0.3939393939393939 -0.9797979797979798 0.0
-0.3737373737373737 -0.9797979797979798 0.0
-0.3535353535353535 -0.9797979797979798 0.0
-0.33333333333333326 -0.9797979797979798 0.0
-0.31313131313131304 -0.9797979797979798 0.0
-0.2929292929292928 -0.9797979797979798 0.0
-0.2727272727272727 -0.9797979797979798 0.0
-0.2525252525252525 -0.9797979797979798 0.0
-0.23232323232323226 -0.9797979797979798 0.0
-0.21212121212121204 -0.9797979797979798 0.0
-0.19191919191919182 -0.9797979797979798 0.0
-0.1717171717171716 -0.9797979797979798 0.0
-0.1515151515151515 -0.9797979797979798 0.0
-0.13131313131313127 -0.9797979797979798 0.0
-0.11111111111111105 -0.9797979797979798 0.0
-0.09090909090909083 -0.9797979797979798 0.0
-0.07070707070707061 -0.9797979797979798 0.0
-0.050505050505050386 -0.9797979797979798 0.0
-0.030303030303030276 -0.9797979797979798 0.0
-0.010101010101010055 -0.9797979797979798 0.0
0.010101010101010166 -0.9797979797979798 0.0
0.030303030303030498 -0.9797979797979798 0.0
0.05050505050505061 -0.9797979797979798 0.0
0.07070707070707072 -0.9797979797979798 0.0
0.09090909090909105 -0.9797979797979798 0.0
0.11111111111111116 -0.9797979797979798 0.0
0.1313131313131315 -0.9797979797979798 0.0
0.1515151515151516 -0.9797979797979798 0.0
0.1717171717171717 -0.9797979797979798 0.0
0.19191919191919204 -0.9797979797979798 0.0
0.21212121212121215 -0.9797979797979798 0.0
0.2323232323232325 -0.9797979797979798 0.0
0.2525252525252526 -0.9797979797979798 0.0
0.27272727272727293 -0.9797979797979798 0.0
0.29292929292929304 -0.9797979797979798 0.0
0.31313131313131315 -0.9797979797979798 0.0
0.3333333333333335 -0.9797979797979798 0.0
0.3535353535353536 -0.9797979797979798 0.0
0.3737373737373739 -0.9797979797979798 0.0
0.39393939393939403 -0.9797979797979798 0.0
0.41414141414141437 -0.9797979797979798 0.0
0.4343434343434345 -0.9797979797979798 0.0
0.4545454545454546 -0.9797979797979798 0.0
0.4747474747474749 -0.9797979797979798 0.0
0.49494949494949503 -0.9797979797979798 0.0
0.5151515151515154 -0.9797979797979798 0.0
0.5353535353535355 -0.9797979797979798 0.0
0.5555555555555556 -0.9797979797979798 0.0
0.5757575757575759 -0.9797979797979798 0.0
0.595959595959596 -0.9797979797979798 0.0
0.6161616161616164 -0.9797979797979798 0.0
0.6363636363636365 -0.9797979797979798 0.0
0.6565656565656568 -0.9797979797979798 0.0
0.6767676767676769 -0.9797979797979798 0.0
0.696969696969697 -0.9797979797979798 0.0
0.7171717171717173 -0.9797979797979798 0.0
0.7373737373737375 -0.9797979797979798 0.0
0.7575757575757578 -0.9797979797979798 0.0
0.7777777777777779 -0.9797979797979798 0.0
0.7979797979797982 -0.9797979797979798 0.0
0.8181818181818183 -0.9797979797979798 0.0
0.8383838383838385 -0.9797979797979798 0.0
0.8585858585858588 -0.9797979797979798 0.0
0.8787878787878789 -0.9797979797979798 0.0
0.8989898989898992 -0.9797979797979798 0.0
0.9191919191919193 -0.9797979797979798 0.0
0.9393939393939394 -0.9797979797979798 0.0
0.9595959595959598 -0.9797979797979798 0.0
0.9797979797979799 -0.9797979797979798 0.0
1.0 -0.9797979797979798 0.0
-1.0 -0.9595959595959596 0.0
-0.9797979797979798 -0.9595959595959596 0.0
-0.9595959595959596 -0.9595959595959596 0.0
-0.9393939393939394 -0.9595959595959596 0.0
-0.9191919191919192 -0.9595959595959596 0.0
-0.898989898989899 -0.9595959595959596 0.0
-0.8787878787878788 -0.9595959595959596 0.0
-0.8585858585858586 -0.9595959595959596 0.0
-0.8383838383838383 -0.9595959595959596 0.0
-0.8181818181818181 -0.9595959595959596 0.0
-0.797979797979798 -0.9595959595959596 0.0
-0.7777777777777778 -0.9595959595959596 0.0
-0.7575757575757576 -0.9595959595959596 0.0
-0.7373737373737373 -0.9595959595959596 0.0
-0.7171717171717171 -0.9595959595959596 0.0
-0.696969696969697 -0.9595959595959596 0.0
-0.6767676767676767 -0.9595959595959596 0.0
-0.6565656565656566 -0.9595959595959596 0.0
-0.6363636363636364 -0.9595959595959596 0.0
-0.6161616161616161 -0.9595959595959596 0.0
-0.5959595959595959 -0.9595959595959596 0.0
-0.5757575757575757 -0.9595959595959596 0.0
-0.5555555555555556 -0.9595959595959596 0.0
-0.5353535353535352 -0.9595959595959596 0.0
-0.5151515151515151 -0.9595959595959596 0.0
-0.4949494949494949 -0.9595959595959596 0.0
-0.4747474747474747 -0.9595959595959596 0.0
-0.4545454545454545 -0.9595959595959596 0.0
-0.43434343434343425 -0.9595959595959596 0.0
-0.41414141414141414 -0.9595959595959596 0.0
-0.3939393939393939 -0.9595959595959596 0.0
-0.3737373737373737 -0.9595959595959596 0.0
-0.3535353535353535 -0.9595959595959596 0.0
-0.33333333333333326 -0.9595959595959596 0.0
-0.31313131313131304 -0.9595959595959596 0.0
-0.2929292929292928 -0.9595959595959596 0.0
-0.2727272727272727 -0.9595959595959596 0.0
-0.2525252525252525 -0.9595959595959596 0.0
-0.23232323232323226 -0.9595959595959596 0.0
-0.21212121212121204 -0.9595959595959596 0.0
-0.19191919191919182 -0.9595959595959596 0.0
-0.1717171717171716 -0.9595959595959596 0.0
-0.1515151515151515 -0.9595959595959596 0.0
-0.13131313131313127 -0.9595959595959596 0.0
-0.11111111111111105 -0.9595959595959596 0.0
-0.09090909090909083 -0.9595959595959596 0.0
-0.07070707070707061 -0.9595959595959596 0.0
-0.050505050505050386 -0.9595959595959596 0.0
-0.030303030303030276 -0.9595959595959596 0.0
-0.010101010101010055 -0.9595959595959596 0.0
0.010101010101010166 -0.9595959595959596 0.0
0.030303030303030498 -0.9595959595959596 0.0
0.05050505050505061 -0.9595959595959596 0.0
0.07070707070707072 -0.9595959595959596 0.0
0.09090909090909105 -0.9595959595959596 0.0
0.11111111111111116 -0.9595959595959596 0.0
0.1313131313131315 -0.9595959595959596 0.0
0.1515151515151516 -0.9595959595959596 0.0
0.1717171717171717 -0.9595959595959596 0.0
0.19191919191919204 -0.9595959595959596 0.0
0.21212121212121215 -0.9595959595959596 0.0
[...]
POINT_DATA 10000
SCALARS u float 1
LOOKUP_TABLE default
0.8273276090621948
0.7722578644752502
0.7031658291816711
0.6213257908821106
0.5284754037857056
0.4267200827598572
0.31838342547416687
0.20582720637321472
0.09128882735967636
-0.02323029190301895
-0.13599804043769836
-0.24552056193351746
-0.3504757881164551
-0.4496471583843231
-0.5418757200241089
-0.626042366027832
-0.7010632753372192
-0.7658990025520325
-0.8195652961730957
-0.8611270785331726
-0.8897180557250977
-0.9045581221580505
-0.904995858669281
-0.8905728459358215
-0.8611119389533997
-0.8168063163757324
-0.7582845091819763
-0.6866220831871033
-0.6032784581184387
-0.5099743008613586
-0.40854355692863464
-0.30081906914711
-0.18858543038368225
-0.07358492165803909
0.04242975264787674
0.15765339136123657
0.2702041566371918
0.3781462609767914
0.4795510470867157
0.5725857019424438
0.6556029319763184
0.7272234559059143
0.7863866686820984
0.8323730826377869
0.8647905588150024
0.8835293650627136
0.8887133598327637
0.8806284070014954
0.8596739768981934
0.8263071179389954
0.78101646900177
0.7243154644966125
0.6567428708076477
0.578895628452301
0.4914630949497223
0.39528146386146545
0.2913855314254761
0.18106698989868164
0.06591971963644028
-0.05212954431772232
-0.1708354651927948
-0.28768280148506165
-0.400013267993927
-0.5051831603050232
-0.6007680892944336
-0.6847472190856934
-0.755629301071167
-0.8124946355819702
-0.8549432158470154
-0.8829874992370605
-0.8969159722328186
-0.8971678614616394
-0.8842326998710632
-0.8585935831069946
-0.8206961154937744
-0.7709546685218811
-0.7097813487052917
-0.637643575668335
-0.5551294684410095
-0.46303054690361023
-0.36240729689598083
-0.2546534240245819
-0.1415145993232727
-0.02506435662508011
0.09236734360456467
0.20831069350242615
0.32029756903648376
0.4260115921497345
0.5234103202819824
0.6108167171478271
0.6869655251502991
0.751002848148346
0.8024648427963257
0.8412308692932129
0.8674759864807129
0.8816280961036682
0.8843326568603516
0.8764339685440063
0.8589586019515991
0.8330953121185303
0.7756730914115906
0.7219231724739075
0.6547686457633972
0.5758836269378662
0.48737332224845886
0.39157816767692566
0.29083988070487976
0.18730023503303528
0.0827651247382164
-0.02133331447839737
-0.12386558204889297
-0.22388717532157898
-0.32050204277038574
-0.4127543270587921
-0.49956944584846497
-0.5797531008720398
-0.6520186066627502
-0.71504807472229
-0.7675453424453735
-0.8082897067070007
-0.8361890316009521
-0.8503414988517761
-0.850104033946991
-0.8351686596870422
-0.8056374788284302
-0.7620648145675659
-0.7054510116577148
-0.6371607780456543
-0.5587823987007141
-0.4719732105731964
-0.3783233165740967
-0.27930948138237
-0.17631348967552185
-0.07069728523492813
0.036115750670433044
0.14257881045341492
0.2470114827156067
0.34762445092201233
0.4425916373729706
0.5301406979560852
0.6086475253105164
0.6767174601554871
0.7332450151443481
0.7774366140365601
0.8088127970695496
0.8271766304969788
0.8325744271278381
0.8252406716346741
0.805549144744873
0.7739680409431458
0.7310211062431335
0.6772768497467041
0.6133406162261963
0.5398717522621155
0.45761024951934814
0.36741575598716736
0.2703076899051666
0.16750890016555786
0.06047912687063217
-0.049063511192798615
-0.15914466977119446
-0.2675624489784241
-0.37197184562683105
-0.4699888527393341
-0.559352695941925
-0.638088583946228
-0.7046559453010559
-0.758032500743866
-0.7977248430252075
-0.8236891627311707
-0.8362122178077698
-0.8357802033424377
-0.8229629397392273
-0.7983383536338806
-0.7624450325965881
-0.715772807598114
-0.658781111240387
-0.5919395685195923
-0.5157827138900757
-0.4309752881526947
-0.33838704228401184
-0.23914530873298645
-0.13468492031097412
-0.026746071875095367
0.08265193551778793
0.19129011034965515
0.2968584895133972
0.39708784222602844
0.4898751676082611
0.5733998417854309
0.6461934447288513
0.707189679145813
0.7557218670845032
0.7915149331092834
0.8146445751190186
0.8255096077919006
0.8247917294502258
0.8134274482727051
0.7925838828086853
0.7636228799819946
0.710612416267395
0.658994734287262
0.5950459241867065
0.5207843780517578
0.4385620653629303
0.35078534483909607
0.2596508860588074
0.16695383191108704
0.07401355355978012
-0.0182822123169899
-0.10933927446603775
-0.1986790895462036
-0.2857627272605896
-0.369857519865036
-0.44997361302375793
-0.5248635411262512
-0.5930789113044739
-0.6530606746673584
-0.7032448649406433
-0.7421669960021973
-0.7685653567314148
-0.7814761996269226
-0.7803332209587097
-0.76503986120224
-0.7360150218009949
-0.6941671967506409
-0.6408058404922485
-0.5774707198143005
-0.5057500600814819
-0.42711251974105835
-0.3428415358066559
-0.2540428042411804
-0.161733478307724
-0.06694789975881577
0.029168955981731415
0.12531089782714844
0.22000563144683838
0.31165140867233276
0.3985826075077057
0.47915521264076233
0.5518287420272827
0.6152445673942566
0.6682785153388977
0.710076630115509
0.7400643825531006
0.7579352259635925
0.7636258006095886
0.7572812438011169
0.7392193675041199
0.7098865509033203
0.6698326468467712
0.6196817755699158
0.5601184964179993
0.49188661575317383
0.4157993495464325
0.3327617943286896
0.2437894344329834
0.1500421166419983
0.05283892899751663
-0.046322621405124664
-0.14576783776283264
-0.2436598241329193
-0.33803901076316833
-0.426890105009079
-0.5082353949546814
-0.5802603363990784
-0.6414456367492676
-0.6906836032867432
-0.727336585521698
-0.7512288093566895
-0.762559711933136
-0.7617877125740051
-0.7495138645172119
-0.7263786792755127
-0.6930053234100342
-0.6499693393707275
-0.5977974534034729
-0.5369911789894104
-0.46806684136390686
-0.39160600304603577
-0.3083122968673706
-0.2190735638141632
-0.125004380941391
-0.02748899906873703
0.07182826846837997
0.17106333374977112
0.26816147565841675
0.36100420355796814
0.4475157558917999
0.5257917642593384
0.5942026972770691
0.6514683961868286
0.6967121958732605
0.7294716835021973
0.7496970891952515
0.7577217817306519
0.7542346119880676
0.7402412295341492
0.7170194983482361
0.6860819458961487
0.6328848600387573
0.5845180153846741
0.5253293514251709
0.4575507342815399
0.3835897445678711
0.30572766065597534
0.22586441040039062
0.14538127183914185
0.0651320144534111
-0.014454491436481476
-0.09319872409105301
-0.17096737027168274
-0.24749305844306946
-0.3222314715385437
-0.3942858874797821
-0.4624105989933014
-0.5250666737556458
-0.5805407762527466
-0.6270905137062073
-0.6630899310112
-0.6871873736381531
-0.6984348893165588
-0.6964004635810852
-0.6812207698822021
-0.6536044478416443
-0.6147319674491882
-0.5660848021507263
-0.5092305541038513
-0.4456227719783783
-0.3764803111553192
-0.30276912450790405
-0.2252814769744873
-0.14474651217460632
-0.061945803463459015
0.02220756560564041
0.10663124173879623
0.1900847852230072
0.2711986303329468
0.34853312373161316
0.42063984274864197
0.4861278831958771
0.5437231659889221
0.5923236012458801
0.6310343742370605
0.6591935753822327
0.6763765215873718
0.6823920607566833
0.6772707104682922
0.661237895488739
0.634694516658783
0.5981860160827637
0.5523755550384521
0.4980227053165436
0.43596014380455017
0.36708295345306396
0.292347252368927
0.21277159452438354
0.12944817543029785
0.04355045408010483
-0.04365699738264084
-0.13080984354019165
-0.21645274758338928
-0.29904523491859436
-0.3769935071468353
-0.44868752360343933
-0.5125741958618164
-0.5672532320022583
-0.6115899085998535
-0.6448115110397339
-0.6665628552436829
-0.6768823862075806
-0.6761255860328674
-0.6648550033569336
-0.6437342166900635
-0.613447368144989
-0.5746482014656067
-0.5279383063316345
-0.4738723337650299
-0.41297224164009094
-0.34576615691185
-0.2728273570537567
-0.19482791423797607
-0.11258608847856522
-0.027118124067783356
0.06032633036375046
0.1482539176940918
0.23494845628738403
0.31853073835372925
0.3970526158809662
0.46860918402671814
0.5314704179763794
0.5841832160949707
0.6256674528121948
0.655266284942627
0.6727738976478577
0.6784310936927795
0.6728957295417786
0.6572028398513794
0.6327099204063416
0.6010342836380005
0.5436194539070129
0.49989181756973267
0.4472125470638275
0.38782432675361633
0.32397714257240295
0.2576449513435364
0.19032904505729675
0.1229872927069664
0.05608486384153366
-0.010280705988407135
-0.07619623094797134
-0.1417461633682251
-0.20684054493904114
-0.2710810899734497
-0.33368533849716187
-0.39346787333488464
-0.4489079415798187
-0.49826207756996155
-0.5397364497184753
-0.5716751217842102
-0.5927423238754272
-0.6020854115486145
-0.5994345545768738
-0.585137665271759
-0.5600894689559937
-0.5255876183509827
-0.48310771584510803
-0.4340861141681671
-0.37975093722343445
-0.321055144071579
-0.25871002674102783
-0.1932801604270935
-0.12530562281608582
-0.05538824945688248
0.015750177204608917
0.08724906295537949
0.1581200361251831
0.22727370262145996
0.29355180263519287
0.35576513409614563
0.4127282202243805
0.46331116557121277
0.5064730048179626
0.5413123369216919
0.5670976638793945
0.5832961201667786
0.5895877480506897
0.5858728289604187
0.5722695589065552
0.5490984320640564
0.5168709754943848
0.47625958919525146
0.42806684970855713
0.3731955289840698
0.31260889768600464
0.24730703234672546
0.17830342054367065
0.10661608725786209
0.033266328275203705
-0.040716610848903656
-0.1142803207039833
-0.18634465336799622
-0.25578778982162476
-0.3214443027973175
-0.38211026787757874
-0.43656548857688904
-0.4836205542087555
-0.5222046375274658
-0.5514702200889587
-0.5708844065666199
-0.5802849531173706
-0.5798534750938416
-0.5700474381446838
-0.5514926910400391
-0.5248969197273254
-0.49096861481666565
-0.45037969946861267
-0.40373751521110535
-0.3515866696834564
-0.2944224774837494
-0.23271453380584717
-0.16694998741149902
-0.0976765975356102
-0.02556825429201126
0.048519812524318695
0.12350784987211227
0.19806617498397827
0.27063295245170593
0.33947792649269104
0.402797669172287
0.4588424861431122
0.5060554146766663
0.5431889891624451
0.5694059729576111
0.5843320488929749
0.58808434009552
0.581249475479126
0.564845860004425
0.5402588844299316
0.5091646313667297
0.44434216618537903
0.40680861473083496
0.3624255955219269
0.31322190165519714
0.26108318567276
0.20753952860832214
0.15364879369735718
0.09999283403158188
0.04675140231847763
-0.006166823208332062
-0.05897284299135208
-0.11184219270944595
-0.16477283835411072
-0.2174706757068634
-0.26927390694618225
-0.3191332221031189
-0.36565661430358887
-0.40722569823265076
-0.44216540455818176
-0.4689437448978424
-0.4863734543323517
-0.493761271238327
-0.4910004436969757
-0.47855380177497864
-0.45735010504722595
-0.42860323190689087
-0.3935994803905487
-0.35351458191871643
-0.3093070089817047
-0.2617003619670868
-0.2112337052822113
-0.15835371613502502
-0.1034955307841301
-0.04714290052652359
0.010145194828510284
0.06772870570421219
0.12489406019449234
0.1808624565601349
0.2347983717918396
0.2858164608478546
0.3329940140247345
0.3753902316093445
0.41207894682884216
0.4421911835670471
0.464962363243103
0.47977328300476074
0.48619046807289124
0.48398903012275696
0.4731658697128296
0.4539475739002228
0.4267772436141968
0.3922913372516632
0.35129621624946594
0.30471429228782654
0.25354039669036865
0.1987873613834381
0.1414453685283661
0.08244708925485611
0.022657491266727448
-0.03712325543165207
-0.09614358097314835
-0.1536780297756195
-0.20899724960327148
-0.26134851574897766
-0.3099271357059479
-0.3538740575313568
-0.39228200912475586
-0.4242374002933502
-0.44890710711479187
-0.46564391255378723
-0.47408363223075867
-0.47419843077659607
-0.4662710726261139
-0.45082888007164
-0.4285435974597931
-0.40014275908470154
-0.3663414418697357
-0.32779085636138916
-0.2850585877895355
-0.23861536383628845
-0.1888483166694641
-0.13608452677726746
-0.08064071089029312
-0.02288135141134262
0.036707036197185516
0.09744637459516525
0.158412903547287
0.2184138000011444
0.2760127782821655
0.32960453629493713
0.377523809671402
0.41819724440574646
0.45027878880500793
0.47278347611427307
0.4851784408092499
0.48743683099746704
0.48003244400024414
0.463915079832077
0.4404405355453491
0.4112767279148102
0.336930513381958
0.3071513772010803
0.2727102041244507
0.23520755767822266
0.19600918889045715
0.15612852573394775
0.11618929356336594
0.07646893709897995
0.03697606176137924
-0.0024439767003059387
-0.04200286418199539
-0.0818609967827797
-0.12202564626932144
-0.16226229071617126
-0.20203858613967896
-0.2404995560646057
-0.2765021026134491
-0.308715283870697
-0.3357650339603424
-0.3564201295375824
-0.369761198759079
-0.37530896067619324
-0.3730677366256714
-0.36348551511764526
-0.3473348915576935
-0.325549453496933
-0.29907700419425964
-0.2687540352344513
-0.2352699339389801
-0.19917339086532593
-0.16091886162757874
-0.1209169551730156
-0.07956955581903458
-0.037279047071933746
0.0055365487933158875
0.04845856875181198
0.09105538576841354
0.1328732669353485
0.1734190583229065
0.21214047074317932
0.24841096997261047
0.2815273106098175
0.310726523399353
0.3352281153202057
0.3542763888835907
0.36720797419548035
0.3735005557537079
0.37282073497772217
0.36505258083343506
0.3503119647502899
0.3289467394351959
0.3015224039554596
0.26878422498703003
0.23161724209785461
0.19098466634750366
0.1478618085384369
0.10317905992269516
0.05776595324277878
0.012333326041698456
-0.03253794461488724
-0.07637115567922592
-0.11876460164785385
-0.159345805644989
-0.19773313403129578
-0.2334977090358734
-0.26613619923591614
-0.2950526773929596
-0.3195640742778778
-0.33895018696784973
-0.3525412976741791
-0.3598312437534332
-0.3605796992778778
-0.3548579514026642
-0.3430234491825104
-0.3256501853466034
-0.30342864990234375
-0.2770760953426361
-0.24726292490959167
-0.21456164121627808
-0.17941904067993164
-0.14214691519737244
-0.10294231027364731
-0.061922378838062286
-0.019187740981578827
0.025100044906139374
0.0706329271197319
0.11688029021024704
0.1630396842956543
0.20802682638168335
0.2505158483982086
0.2890336811542511
0.3220902383327484
0.3483315408229828
0.36668676137924194
0.3764938712120056
0.37757349014282227
0.3702599108219147
0.3553803265094757
0.33419308066368103
0.30829930305480957
0.2235301434993744
0.2028827667236328
0.17970794439315796
0.15502071380615234
0.12958019971847534
0.10386817902326584
0.07812207192182541
0.05239277333021164
0.02661486715078354
0.0006668195128440857
-0.025574006140232086
-0.052173204720020294
-0.0790843740105629
-0.10610342770814896
-0.13282707333564758
-0.1586475968360901
-0.18277624249458313
-0.20431610941886902
-0.22237050533294678
-0.23616233468055725
-0.24514344334602356
-0.24906101822853088
-0.24795415997505188
-0.24210837483406067
-0.23196515440940857
-0.2180366814136505
-0.2008322775363922
-0.1808268427848816
-0.15846312046051025
-0.1341697871685028
-0.10837378352880478
-0.08149833232164383
-0.05394358187913895
-0.026059754192829132
0.001873202621936798
0.02964397519826889
0.05709686130285263
0.0840987041592598
0.11049564927816391
0.1360745131969452
0.16052407026290894
0.18341267108917236
0.20419201254844666
0.2222214639186859
0.2368183135986328
0.24732157588005066
0.25316181778907776
0.2539217174053192
0.24938267469406128
0.23954814672470093
0.22465234994888306
0.20514437556266785
0.1816616654396057
0.154979407787323
0.12595880031585693
0.09547116607427597
0.06433504074811935
0.033253781497478485
0.002775318920612335
-0.026716239750385284
-0.05498944967985153
-0.08192465454339981
-0.10746153444051743
-0.1315479576587677
-0.1540902554988861
-0.17491325736045837
-0.19373133778572083
-0.21013206243515015
-0.22358626127243042
-0.2335015833377838
-0.23932138085365295
-0.24064397811889648
-0.2373204529285431
-0.22949495911598206
-0.21757405996322632
-0.20214325189590454
-0.18386641144752502
-0.16338956356048584
-0.14126503467559814
-0.11790015548467636
-0.09353775531053543
-0.06825777143239975
-0.04201371222734451
-0.014688350260257721
0.013827405869960785
0.0435478612780571
0.07430385798215866
0.10567667335271835
0.13695991039276123
0.16717544198036194
0.19512921571731567
0.21952149271965027
0.23909443616867065
0.2527736723423004
0.259817898273468
0.2599133253097534
0.2532350420951843
0.2404446303844452
0.22263985872268677
0.20128023624420166
0.10644256323575974
0.09593736380338669
0.08489467948675156
0.0736616775393486
0.062372706830501556
0.05101235955953598
0.03948884457349777
0.027698539197444916
0.015565477311611176
0.003060482442378998
-0.009797044098377228
-0.022931672632694244
-0.03621215373277664
-0.04944206029176712
-0.06235978752374649
-0.07464299350976944
-0.08594033867120743
-0.09590453654527664
-0.10423783212900162
-0.11072517186403275
-0.11524435132741928
-0.11774516850709915
-0.11821996420621872
-0.11667007952928543
-0.11309915035963058
-0.10752027481794357
-0.09998319298028946
-0.09061185270547867
-0.0796303078532219
-0.06737364083528519
-0.054255641996860504
-0.04071953147649765
-0.02716558426618576
-0.013890914618968964
-0.0010534748435020447
0.011332042515277863
0.023360438644886017
0.035195522010326385
0.04700153321027756
0.05889173597097397
0.07086890190839767
0.08279583603143692
0.0943748727440834
0.10516510158777237
0.11461522430181503
0.12213083356618881
0.12714296579360962
0.129184752702713
0.12795010209083557
0.12333007901906967
0.11542626470327377
0.10454194992780685
0.0911562517285347
0.07587838917970657
0.05939478427171707
0.04240446537733078
0.025558821856975555
0.009394921362400055
-0.005707792937755585
-0.01955217868089676
-0.032116226851940155
-0.04351825267076492
-0.053964175283908844
-0.06368442624807358
-0.07287649065256119
-0.08165998011827469
-0.09003936499357224
-0.09787455946207047
-0.10487382858991623
-0.11060460656881332
-0.11456047743558884
-0.11626187711954117
-0.11537859588861465
-0.11182602494955063
-0.10578719526529312
-0.09767249971628189
-0.08802416175603867
-0.07740751653909683
-0.06631629914045334
-0.05509612709283829
-0.043913863599300385
-0.032748617231845856
-0.02141735702753067
-0.009629972279071808
0.0029430612921714783
0.01657833904027939
0.03142526000738144
0.047417812049388885
0.06423404067754745
0.08127699047327042
0.09770288318395615
0.11249738186597824
0.12459862977266312
0.1330263316631317
0.13702791929244995
0.13619732856750488
0.13055038452148438
0.12055069953203201
0.10708605498075485
0.09140073508024216
-0.011994607746601105
-0.011847235262393951
-0.010431475937366486
-0.008069820702075958
-0.005209542810916901
-0.002305544912815094
0.00027992576360702515
0.0023301467299461365
0.00379016250371933
0.004742316901683807
0.005362085998058319
0.005871288478374481
0.006493411958217621
0.00740998238325119
0.008728139102458954
0.010445497930049896
0.01242908090353012
0.01442035287618637
0.01606287807226181
0.01698305457830429
0.016891352832317352
0.015676550567150116
0.013458244502544403
0.01056738942861557
0.007463671267032623
0.004620663821697235
0.0024162158370018005
0.0010465458035469055
0.0004891529679298401
0.0005115196108818054
0.0007377341389656067
0.0007414743304252625
0.00015141814947128296
-0.0012648925185203552
-0.003549613058567047
-0.006546743214130402
-0.009940989315509796
-0.013314716517925262
-0.01621771603822708
-0.01824422925710678
-0.01908744126558304
-0.018590636551380157
-0.016770295798778534
-0.013828091323375702
-0.010118849575519562
-0.006110228598117828
-0.002311505377292633
0.000801675021648407
0.0028536245226860046
0.003622584044933319
0.0030637308955192566
0.0013061389327049255
-0.0013676807284355164
-0.004563771188259125
-0.007822684943675995
-0.0106721892952919
-0.012683369219303131
-0.013523466885089874
-0.01300337165594101
-0.011106126010417938
-0.007993258535861969
-0.00398264080286026
0.000502951443195343
0.004993610084056854
0.009040109813213348
0.01226719468832016
0.01440989226102829
0.015351511538028717
0.015137888491153717
0.013992346823215485
0.012291572988033295
0.010497204959392548
0.009045742452144623
0.008229456841945648
0.008111752569675446
0.00852186232805252
0.009110204875469208
0.00945679098367691
0.00917574018239975
0.00801076740026474
0.005883045494556427
0.0029087886214256287
-0.0006189718842506409
-0.004272989928722382
-0.007556445896625519
-0.009978421032428741
-0.011130087077617645
-0.010756932199001312
-0.008819885551929474
-0.005525477230548859
-0.0013230517506599426
0.0031305477023124695