# vtk DataFile Version 3.0
2D PINN Solution
ASCII
DATASET STRUCTURED_GRID
DIMENSIONS 100 100 1
POINTS 10000 float
-1.0 -1.0 0.0
-0.9797979797979798 -1.0 0.0
-0.9595959595959596 -1.0 0.0
-0.9393939393939394 -1.0 0.0
-0.9191919191919192 -1.0 0.0
-0.898989898989899 -1.0 0.0
-0.8787878787878788 -1.0 0.0
-0.8585858585858586 -1.0 0.0
-0.8383838383838383 -1.0 0.0
-0.8181818181818181 -1.0 0.0
-0.797979797979798 -1.0 0.0
-0.7777777777777778 -1.0 0.0
-0.7575757575757576 -1.0 0.0
-0.7373737373737373 -1.0 0.0
-0.7171717171717171 -1.0 0.0
-0.696969696969697 -1.0 0.0
-0.6767676767676767 -1.0 0.0
-0.6565656565656566 -1.0 0.0
-0.6363636363636364 -1.0 0.0
-0.6161616161616161 -1.0 0.0
-0.5959595959595959 -1.0 0.0
-0.5757575757575757 -1.0 0.0
-0.5555555555555556 -1.0 0.0
-0.5353535353535352 -1.0 0.0
-0.5151515151515151 -1.0 0.0
-0.4949494949494949 -1.0 0.0
-0.4747474747474747 -1.0 0.0
-0.4545454545454545 -1.0 0.0
-0.43434343434343425 -1.0 0.0
-0.41414141414141414 -1.0 0.0
-0.3939393939393939 -1.0 0.0
-0.3737373737373737 -1.0 0.0
-0.3535353535353535 -1.0 0.0
-0.33333333333333326 -1.0 0.0
-0.31313131313131304 -1.0 0.0
-0.2929292929292928 -1.0 0.0
-0.2727272727272727 -1.0 0.0
-0.2525252525252525 -1.0 0.0
-0.23232323232323226 -1.0 0.0
-0.21212121212121204 -1.0 0.0
-0.19191919191919182 -1.0 0.0
-0.1717171717171716 -1.0 0.0
-0.1515151515151515 -1.0 0.0
-0.13131313131313127 -1.0 0.0
-0.11111111111111105 -1.0 0.0
-0.09090909090909083 -1.0 0.0
-0.07070707070707061 -1.0 0.0
-0.050505050505050386 -1.0 0.0
-0.030303030303030276 -1.0 0.0
-0.010101010101010055 -1.0 0.0
0.010101010101010166 -1.0 0.0
0.030303030303030498 -1.0 0.0
0.05050505050505061 -1.0 0.0
0.07070707070707072 -1.0 0.0
0.09090909090909105 -1.0 0.0
0.11111111111111116 -1.0 0.0
0.1313131313131315 -1.0 0.0
0.1515151515151516 -1.0 0.0
0.1717171717171717 -1.0 0.0
0.19191919191919204 -1.0 0.0
0.21212121212121215 -1.0 0.0
0.2323232323232325 -1.0 0.0
0.2525252525252526 -1.0 0.0
0.27272727272727293 -1.0 0.0
0.29292929292929304 -1.0 0.0
0.31313131313131315 -1.0 0.0
0.3333333333333335 -1.0 0.0
0.3535353535353536 -1.0 0.0
0.3737373737373739 -1.0 0.0
0.39393939393939403 -1.0 0.0
0.41414141414141437 -1.0 0.0
0.4343434343434345 -1.0 0.0
0.4545454545454546 -1.0 0.0
0.4747474747474749 -1.0 0.0
0.49494949494949503 -1.0 0.0
0.5151515151515154 -1.0 0.0
0.5353535353535355 -1.0 0.0
0.5555555555555556 -1.0 0.0
0.5757575757575759 -1.0 0.0
0.595959595959596 -1.0 0.0
0.6161616161616164 -1.0 0.0
0.6363636363636365 -1.0 0.0
0.6565656565656568 -1.0 0.0
0.6767676767676769 -1.0 0.0
0.696969696969697 -1.0 0.0
0.7171717171717173 -1.0 0.0
0.7373737373737375 -1.0 0.0
0.7575757575757578 -1.0 0.0
0.7777777777777779 -1.0 0.0
0.7979797979797982 -1.0 0.0
0.8181818181818183 -1.0 0.0
0.8383838383838385 -1.0 0.0
0.8585858585858588 -1.0 0.0
0.8787878787878789 -1.0 0.0
0.8989898989898992 -1.0 0.0
0.9191919191919193 -1.0 0.0
0.9393939393939394 -1.0 0.0
0.9595959595959598 -1.0 0.0
0.9797979797979799 -1.0 0.0
1.0 -1.0 0.0
-1.0 -0.9797979797979798 0.0
-0.9797979797979798 -0.9797979797979798 0.0
-0.9595959595959596 -0.9797979797979798 0.0
-0.9393939393939394 -0.9797979797979798 0.0
-0.9191919191919192 -0.9797979797979798 0.0
-0.898989898989899 -0.9797979797979798 0.0
-0.8787878787878788 -0.9797979797979798 0.0
-0.8585858585858586 -0.9797979797979798 0.0
-0.8383838383838383 -0.9797979797979798 0.0
-0.8181818181818181 -0.9797979797979798 0.0
-0.797979797979798 -0.9797979797979798 0.0
-0.7777777777777778 -0.9797979797979798 0.0
-0.7575757575757576 -0.9797979797979798 0.0
-0.7373737373737373 -0.9797979797979798 0.0
-0.7171717171717171 -0.9797979797979798 0.0
-0.696969696969697 -0.9797979797979798 0.0
-0.6767676767676767 -0.9797979797979798 0.0
-0.6565656565656566 -0.9797979797979798 0.0
-0.6363636363636364 -0.9797979797979798 0.0
-0.6161616161616161 -0.9797979797979798 0.0
-0.5959595959595959 -0.9797979797979798 0.0
-0.5757575757575757 -0.9797979797979798 0.0
-0.5555555555555556 -0.9797979797979798 0.0
-0.5353535353535352 -0.9797979797979798 0.0
-0.5151515151515151 -0.9797979797979798 0.0
-0.4949494949494949 -0.9797979797979798 0.0
-0.4747474747474747 -0.9797979797979798 0.0
-0.4545454545454545 -0.9797979797979798 0.0
-0.43434343434343425 -0.9797979797979798 0.0
-0.41414141414141414 -0.9797979797979798 0.0
-0.3939393939393939 -0.9797979797979798 0.0
-0.3737373737373737 -0.9797979797979798 0.0
-0.3535353535353535 -0.9797979797979798 0.0
-0.33333333333333326 -0.9797979797979798 0.0
-0.31313131313131304 -0.9797979797979798 0.0
-0.2929292929292928 -0.9797979797979798 0.0
-0.2727272727272727 -0.9797979797979798 0.0
-0.2525252525252525 -0.9797979797979798 0.0
-0.23232323232323226 -0.9797979797979798 0.0
-0.21212121212121204 -0.9797979797979798 0.0
-0.19191919191919182 -0.9797979797979798 0.0
-0.1717171717171716 -0.9797979797979798 0.0
-0.1515151515151515 -0.9797979797979798 0.0
-0.13131313131313127 -0.9797979797979798 0.0
-0.11111111111111105 -0.9797979797979798 0.0
-0.09090909090909083 -0.9797979797979798 0.0
-0.07070707070707061 -0.9797979797979798 0.0
-0.050505050505050386 -0.9797979797979798 0.0
-0.030303030303030276 -0.9797979797979798 0.0
-0.010101010101010055 -0.9797979797979798 0.0
0.010101010101010166 -0.9797979797979798 0.0
0.030303030303030498 -0.9797979797979798 0.0
0.05050505050505061 -0.9797979797979798 0.0
0.07070707070707072 -0.9797979797979798 0.0
0.09090909090909105 -0.9797979797979798 0.0
0.11111111111111116 -0.9797979797979798 0.0
0.1313131313131315 -0.9797979797979798 0.0
0.1515151515151516 -0.9797979797979798 0.0
0.1717171717171717 -0.9797979797979798 0.0
0.19191919191919204 -0.9797979797979798 0.0
0.21212121212121215 -0.9797979797979798 0.0
0.2323232323232325 -0.9797979797979798 0.0
0.2525252525252526 -0.9797979797979798 0.0
0.27272727272727293 -0.9797979797979798 0.0
0.29292929292929304 -0.9797979797979798 0.0
0.31313131313131315 -0.9797979797979798 0.0
0.3333333333333335 -0.9797979797979798 0.0
0.3535353535353536 -0.9797979797979798 0.0
0.3737373737373739 -0.9797979797979798 0.0
0.39393939393939403 -0.9797979797979798 0.0
0.41414141414141437 -0.9797979797979798 0.0
0.4343434343434345 -0.9797979797979798 0.0
0.4545454545454546 -0.9797979797979798 0.0
0.4747474747474749 -0.9797979797979798 0.0
0.49494949494949503 -0.9797979797979798 0.0
0.5151515151515154 -0.9797979797979798 0.0
0.5353535353535355 -0.9797979797979798 0.0
0.5555555555555556 -0.9797979797979798 0.0
0.5757575757575759 -0.9797979797979798 0.0
0.595959595959596 -0.9797979797979798 0.0
0.6161616161616164 -0.9797979797979798 0.0
0.6363636363636365 -0.9797979797979798 0.0
0.6565656565656568 -0.9797979797979798 0.0
0.6767676767676769 -0.9797979797979798 0.0
0.696969696969697 -0.9797979797979798 0.0
0.7171717171717173 -0.9797979797979798 0.0
0.7373737373737375 -0.9797979797979798 0.0
0.7575757575757578 -0.9797979797979798 0.0
0.7777777777777779 -0.9797979797979798 0.0
0.7979797979797982 -0.9797979797979798 0.0
0.8181818181818183 -0.9797979797979798 0.0
0.8383838383838385 -0.9797979797979798 0.0
0.8585858585858588 -0.9797979797979798 0.0
0.8787878787878789 -0.9797979797979798 0.0
0.8989898989898992 -0.9797979797979798 0.0
0.9191919191919193 -0.9797979797979798 0.0
0.9393939393939394 -0.9797979797979798 0.0
0.9595959595959598 -0.9797979797979798 0.0
0.9797979797979799 -0.9797979797979798 0.0
1.0 -0.9797979797979798 0.0
-1.0 -0.9595959595959596 0.0
-0.9797979797979798 -0.9595959595959596 0.0
-0.9595959595959596 -0.9595959595959596 0.0
-0.9393939393939394 -0.9595959595959596 0.0
-0.9191919191919192 -0.9595959595959596 0.0
-0.898989898989899 -0.9595959595959596 0.0
-0.8787878787878788 -0.9595959595959596 0.0
-0.8585858585858586 -0.9595959595959596 0.0
-0.8383838383838383 -0.9595959595959596 0.0
-0.8181818181818181 -0.9595959595959596 0.0
-0.797979797979798 -0.9595959595959596 0.0
-0.7777777777777778 -0.9595959595959596 0.0
-0.7575757575757576 -0.9595959595959596 0.0
-0.7373737373737373 -0.9595959595959596 0.0
-0.7171717171717171 -0.9595959595959596 0.0
-0.696969696969697 -0.9595959595959596 0.0
-0.6767676767676767 -0.9595959595959596 0.0
-0.6565656565656566 -0.9595959595959596 0.0
-0.6363636363636364 -0.9595959595959596 0.0
-0.6161616161616161 -0.9595959595959596 0.0
-0.5959595959595959 -0.9595959595959596 0.0
-0.5757575757575757 -0.9595959595959596 0.0
-0.5555555555555556 -0.9595959595959596 0.0
-0.5353535353535352 -0.9595959595959596 0.0
-0.5151515151515151 -0.9595959595959596 0.0
-0.4949494949494949 -0.9595959595959596 0.0
-0.4747474747474747 -0.9595959595959596 0.0
-0.4545454545454545 -0.9595959595959596 0.0
-0.43434343434343425 -0.9595959595959596 0.0
-0.41414141414141414 -0.9595959595959596 0.0
-0.3939393939393939 -0.9595959595959596 0.0
-0.3737373737373737 -0.9595959595959596 0.0
-0.3535353535353535 -0.9595959595959596 0.0
-0.33333333333333326 -0.9595959595959596 0.0
-0.31313131313131304 -0.9595959595959596 0.0
-0.2929292929292928 -0.9595959595959596 0.0
-0.2727272727272727 -0.9595959595959596 0.0
-0.2525252525252525 -0.9595959595959596 0.0
-0.23232323232323226 -0.9595959595959596 0.0
-0.21212121212121204 -0.9595959595959596 0.0
-0.19191919191919182 -0.9595959595959596 0.0
-0.1717171717171716 -0.9595959595959596 0.0
-0.1515151515151515 -0.9595959595959596 0.0
-0.13131313131313127 -0.9595959595959596 0.0
-0.11111111111111105 -0.9595959595959596 0.0
-0.09090909090909083 -0.9595959595959596 0.0
-0.07070707070707061 -0.9595959595959596 0.0
-0.050505050505050386 -0.9595959595959596 0.0
-0.030303030303030276 -0.9595959595959596 0.0
-0.010101010101010055 -0.9595959595959596 0.0
0.010101010101010166 -0.9595959595959596 0.0
0.030303030303030498 -0.9595959595959596 0.0
0.05050505050505061 -0.9595959595959596 0.0
0.07070707070707072 -0.9595959595959596 0.0
0.09090909090909105 -0.9595959595959596 0.0
0.11111111111111116 -0.9595959595959596 0.0
0.1313131313131315 -0.9595959595959596 0.0
0.1515151515151516 -0.9595959595959596 0.0
0.1717171717171717 -0.9595959595959596 0.0
0.19191919191919204 -0.9595959595959596 0.0
0.21212121212121215 -0.9595959595959596 0.0
[...]
POINT_DATA 10000
SCALARS u float 1
LOOKUP_TABLE default
0.9641478061676025
0.9749069809913635
0.9710549712181091
0.9531285166740417
0.9216786026954651
0.8772053122520447
0.8201250433921814
0.7507836818695068
0.6695117354393005
0.576734185218811
0.4731173813343048
0.35973700881004333
0.2382063865661621
0.11074142903089523
-0.01988900452852249
-0.1505441963672638
-0.27797582745552063
-0.39912471175193787
-0.511376142501831
-0.6127111911773682
-0.7017481923103333
-0.7776892781257629
-0.840194046497345
-0.8892471790313721
-0.9250027537345886
-0.9476644396781921
-0.9573883414268494
-0.9542160630226135
-0.938051164150238
-0.9086720943450928
-0.8657904863357544
-0.809149444103241
-0.7386662364006042
-0.6545845866203308
-0.5576256513595581
-0.44908836483955383
-0.330868124961853
-0.20539119839668274
-0.07545975595712662
0.05593626946210861
0.18582624197006226
0.311429888010025
0.43027541041374207
0.5402672290802002
0.63970547914505
0.7272608280181885
0.8019382953643799
0.8630320429801941
0.9100725650787354
0.9427905678749084
0.9610828757286072
0.9649832248687744
0.9546442031860352
0.9303153157234192
0.892335832118988
0.8411291241645813
0.7772093415260315
0.7012039422988892
0.6138880252838135
0.5162336230278015
0.40946051478385925
0.29507580399513245
0.17488202452659607
0.05094098299741745
-0.07450263947248459
-0.19912788271903992
-0.3206512928009033
-0.4369136393070221
-0.5459372401237488
-0.6459539532661438
-0.735413134098053
-0.8129786849021912
-0.8775228261947632
-0.9281212091445923
-0.9640398621559143
-0.9847323298454285
-0.9898311495780945
-0.9791460633277893
-0.952677309513092
-0.9106336236000061
-0.8534687757492065
-0.7819182872772217
-0.6970364451408386
-0.6002288460731506
-0.49324050545692444
-0.3781309425830841
-0.2572019398212433
-0.1328902244567871
-0.0076480284333229065
0.11617805808782578
0.23645952343940735
0.35136356949806213
0.4593929052352905
0.5594052672386169
0.6505893468856812
0.7324307560920715
0.8046590685844421
0.8671993017196655
0.9201156497001648
0.9635698199272156
0.9747092723846436
0.9868797063827515
0.9845026135444641
0.9679118990898132
0.9374552965164185
0.893450915813446
0.8361755013465881
0.7658888697624207
0.6829038858413696
0.5877145528793335
0.4811466336250305
0.3645097315311432
0.2397104799747467
0.10925706475973129
-0.02384830266237259
-0.15634220838546753
-0.28498563170433044
-0.40685200691223145
-0.5195389986038208
-0.6212575435638428
-0.7108256220817566
-0.7875763177871704
-0.8512203097343445
-0.9017089009284973
-0.93910151720047
-0.9634526371955872
-0.9747392535209656
-0.9728094935417175
-0.9573801159858704
-0.9280733466148376
-0.8845020532608032
-0.8263933062553406
-0.7537438273429871
-0.666971743106842
-0.5670416355133057
-0.4555170238018036
-0.334524005651474
-0.20663616061210632
-0.07470501214265823
0.05833318084478378
0.18961426615715027
0.3164754807949066
0.43653473258018494
0.5477313995361328
0.6483471393585205
0.7370006442070007
0.8126377463340759
0.8745062947273254
0.9221233129501343
0.9552364349365234
0.9737814664840698
0.9778453707695007
0.9676300883293152
0.9434239268302917
0.9055834412574768
0.8545259833335876
0.7907307744026184
0.7147581577301025
0.6272880434989929
0.529167890548706
0.42147693037986755
0.30559149384498596
0.18322238326072693
0.05642814189195633
-0.0724400207400322
-0.20083972811698914
-0.32617825269699097
-0.44596222043037415
-0.5579195022583008
-0.6600810289382935
-0.7508106827735901
-0.8288074731826782
-0.8930714726448059
-0.9428725838661194
-0.9777019619941711
-0.997231662273407
-1.0012812614440918
-0.9897986054420471
-0.9628532528877258
-0.9206509590148926
-0.8635717034339905
-0.7922142148017883
-0.707456648349762
-0.6105055212974548
-0.5029292702674866
-0.3866611421108246
-0.2639496624469757
-0.1372750997543335
-0.009226463735103607
0.11764513701200485
0.24095848202705383
0.35862311720848083
0.4689074456691742
0.5704818367958069
0.6624001264572144
0.7440686821937561
0.8151914477348328
0.8757026195526123
0.9257062077522278
0.9654255509376526
0.9709376096725464
0.9847205877304077
0.9840402007102966
0.9689990282058716
0.9397320747375488
0.8963969945907593
0.8391780853271484
0.7683284878730774
0.6842565536499023
0.5876391530036926
0.4795646667480469
0.36164072155952454
0.236043781042099
0.10546007007360458
-0.027069218456745148
-0.1583954393863678
-0.2855207622051239
-0.4058201014995575
-0.5171794295310974
-0.6180346608161926
-0.7073304653167725
-0.7844206094741821
-0.8489502668380737
-0.9007351398468018
-0.939654529094696
-0.9655663371086121
-0.978243887424469
-0.9773527979850769
-0.9624646306037903
-0.9331121444702148
-0.8888998031616211
-0.8296429514884949
-0.7555174827575684
-0.6671969294548035
-0.5659182071685791
-0.45347920060157776
-0.3321409821510315
-0.204481840133667
-0.07323538511991501
0.0588584765791893
0.18915393948554993
0.3151662349700928
0.43462154269218445
0.5454869866371155
0.6460013389587402
0.7347057461738586
0.8104605078697205
0.8724446892738342
0.9201413989067078
0.9533035159111023
0.9718993306159973
0.9760646224021912
0.966052234172821
0.9421910047531128
0.9048604965209961
0.8544800281524658
0.791506290435791
0.7164564728736877
0.6299396753311157
0.5327105522155762
0.42573443055152893
0.3102603852748871
0.187884122133255
0.06058772653341293
-0.06927401572465897
-0.19905737042427063
-0.3259725272655487
-0.44726595282554626
-0.5604037642478943
-0.6632124185562134
-0.7539523243904114
-0.8313320279121399
-0.8944622278213501
-0.9427915215492249
-0.976026713848114
-0.9940581917762756
-0.9968978762626648
-0.9846438765525818
-0.9574567675590515
-0.9155709743499756
-0.8593229651451111
-0.7892060279846191
-0.7059335112571716
-0.6105136275291443
-0.5043051242828369
-0.3890478312969208
-0.26685431599617004
-0.14014241099357605
-0.011528290808200836
0.11632253974676132
0.2408531904220581
0.3597516715526581
0.4710689187049866
0.573267936706543
0.6652404069900513
0.7462732791900635
0.815997838973999
0.8743169903755188
0.9213414788246155
0.9573309421539307
0.9532805681228638
0.968725323677063
0.9697961211204529
0.9563488960266113
0.928318440914154
0.8857356905937195
0.8287607431411743
0.7577382922172546
0.6732848286628723
0.5763782262802124
0.46844831109046936
0.35141465067863464
0.22764649987220764
0.09985115379095078
-0.029111571609973907
-0.15643459558486938
-0.27954432368278503
-0.39622700214385986
-0.5046879649162292
-0.6035467982292175
-0.6917902827262878
-0.7686933279037476
-0.8337324261665344
-0.8865031599998474
-0.9266451001167297
-0.9537798762321472
-0.9674801230430603
-0.9672562479972839
-0.9525948166847229
-0.9230315685272217
-0.8782719373703003
-0.8183270692825317
-0.743645966053009
-0.655193567276001
-0.5544642210006714
-0.4433988034725189
-0.3242534101009369
-0.19945365190505981
-0.07147062569856644
0.05725615471601486
0.1843542456626892
0.3075450658798218
0.42466235160827637
0.5336939096450806
0.632832407951355
0.7205324172973633
0.7955594658851624
0.85701584815979
0.9043329358100891
0.9372451901435852
0.9557344317436218
0.9599670171737671
0.9502384066581726
0.9269154667854309
0.8904082775115967
0.8411474227905273
0.7795889973640442
0.7062291502952576
0.6216414570808411
0.5265223979949951
0.42176005244255066
0.30850210785865784
0.18822982907295227
0.06281021982431412
-0.06549162417650223
-0.19406092166900635
-0.32005611062049866
-0.4405960738658905
-0.552971363067627
-0.6548376679420471
-0.7443406581878662
-0.8201574683189392
-0.881462037563324
-0.9278367161750793
-0.9591661095619202
-0.9755334258079529
-0.9771328568458557
-0.9642123579978943
-0.9370396733283997
-0.8959017395973206
-0.8411298394203186
-0.7731497883796692
-0.6925463080406189
-0.6001484990119934
-0.4970993101596832
-0.3849150538444519
-0.2654985785484314
-0.14110982418060303
-0.014281608164310455
0.11232150346040726
0.23605599999427795
0.3544667065143585
0.4654100835323334
0.5671535134315491
0.6583966016769409
0.7382700443267822
0.8062821626663208
0.8622614741325378
0.9062846899032593
0.938616931438446
0.9221781492233276
0.9391551613807678
0.9418555498123169
0.929896891117096
0.9030405879020691
0.8612468838691711
0.8047307133674622
0.734032928943634
0.6500828862190247
0.5542439222335815
0.4483192563056946
0.3344900906085968
0.21519681811332703
0.09298177808523178
-0.02967105060815811
-0.15047010779380798
-0.26737913489341736
-0.3786456882953644
-0.4827876389026642
-0.5785602331161499
-0.6649180054664612
-0.7409763336181641
-0.8059708476066589
-0.8592190742492676
-0.9000757932662964
-0.9279162883758545
-0.9421201348304749
-0.9420909285545349
-0.9273101687431335
-0.8974199891090393
-0.8523391485214233
-0.7923741340637207
-0.7183005213737488
-0.6313756704330444
-0.5332640409469604
-0.4259222447872162
-0.3114466369152069
-0.19197022914886475
-0.06961046904325485
0.05354541540145874
0.17541643977165222
0.29392552375793457
0.40701615810394287
0.5127040147781372
0.6091493964195251
0.694740355014801
0.7681617736816406
0.8284345865249634
0.8749271035194397
0.9073297381401062
0.9256043434143066
0.9299201369285583
0.92058926820755
0.8980106711387634
0.8626218438148499
0.8148840069770813
0.7552701830863953
0.6842886805534363
0.6025081276893616
0.5106093287467957
0.4094391465187073
0.30007684230804443
0.1839030683040619
0.06265374273061752
-0.06155652552843094
-0.18625512719154358
-0.3087049126625061
-0.4260585606098175
-0.5355671048164368
-0.6347932815551758
-0.7217820286750793
-0.7951431274414062
-0.8540462851524353
-0.8981373906135559
-0.927415668964386
-0.9421104788780212
-0.9425676465034485
-0.9291749596595764
-0.902313768863678
-0.862343966960907
-0.8096275925636292
-0.7445620894432068
-0.6676502823829651
-0.5795782804489136
-0.48129191994667053
-0.37407031655311584
-0.25956854224205017
-0.13981041312217712
-0.017138011753559113
0.10589706152677536
0.22668421268463135
0.34270867705345154
0.4516987204551697
0.551741898059845
0.6413414478302002
0.7194372415542603
0.785373866558075
0.8388540744781494
0.8798776268959045
0.9086886048316956
0.8780483603477478
0.8962297439575195
0.9002731442451477
0.8895785212516785
0.8637853860855103
0.8228510022163391
0.7671365737915039
0.6974679827690125
0.6151624321937561
0.5219950079917908
0.4201023578643799
0.3118184208869934
0.19950002431869507
0.08535917848348618
-0.02863890677690506
-0.14080366492271423
-0.2496757209300995
-0.3539615571498871
-0.45246317982673645
-0.5440292954444885
-0.6275419592857361
-0.7019121050834656
-0.7660948634147644
-0.8190934062004089
-0.8599693179130554
-0.8878500461578369
-0.9019568562507629
-0.9016445279121399
-0.8864737153053284
-0.8562955260276794
-0.8113375306129456
-0.7522676587104797
-0.6801950931549072
-0.5965966582298279
-0.5031951665878296
-0.40180936455726624
-0.2942501902580261
-0.18227386474609375
-0.06760288029909134
0.04802470654249191
0.16280657052993774
0.2748611271381378
0.3822518587112427
0.48304879665374756
0.5754204988479614
0.6577273011207581
0.7286004424095154
0.7869939804077148
0.8322026133537292
0.8638477921485901
0.8818351626396179
0.8862976431846619
0.8775327801704407
0.8559458255767822
0.8220017552375793
0.7761958241462708
0.7190460562705994
0.6510983109474182
0.5729556083679199
0.4853140711784363
0.3890186548233032
0.2851085364818573
0.17488372325897217
0.05994092673063278
-0.05779265612363815
-0.1760706901550293
-0.2923848628997803
-0.40408220887184143
-0.5085322260856628
-0.6033249497413635
-0.6864579916000366
-0.7564611434936523
-0.812437117099762
-0.8540098667144775
-0.881212055683136
-0.894350528717041
-0.893878698348999
-0.88029944896698
-0.8541028499603271
-0.8157399296760559
-0.7656251788139343
-0.7041723132133484
-0.6318457722663879
-0.5492307543754578
-0.4571100175380707
-0.3565411865711212
-0.24890878796577454
-0.1359492540359497
-0.01973126083612442
0.09741974622011185
0.21303731203079224
0.32465416193008423
0.429952472448349
0.5268874764442444
0.6137793064117432
0.6893592476844788
0.7527733445167542
0.8035567402839661
0.8415921330451965
0.8670600056648254
0.8212921619415283
0.8401580452919006
0.8451090455055237
0.8353833556175232
0.8105608820915222
0.7706815600395203
0.7163299918174744
0.6486799120903015
0.5694505572319031
0.4807787239551544
0.38502106070518494
0.28451403975486755
0.18137383460998535
0.07736577838659286
-0.02611953765153885
-0.1279926598072052
-0.227339506149292
-0.3232835829257965
-0.41487574577331543
-0.5010407567024231
-0.5805760622024536
-0.6521894335746765
-0.714551568031311
-0.7663593888282776
-0.8063890933990479
-0.8335508108139038
-0.8469536900520325
-0.8459721207618713
-0.8303278088569641
-0.8001571893692017
-0.7560514807701111
-0.6990431547164917
-0.6305144429206848
-0.552056610584259
-0.4653070271015167
-0.37183332443237305
-0.27308306097984314
-0.1704159379005432
-0.06518084555864334
0.041202716529369354
0.1471880078315735
0.25108909606933594
0.351113885641098
0.4454370439052582
0.5322914719581604
0.6100624203681946
0.6773685216903687
0.7331178784370422
0.7765325307846069
0.8071473240852356
0.8247780203819275
0.8294810652732849
0.8215012550354004
0.8012189269065857
0.7691084742546082
0.7257025241851807
0.671574056148529
0.6073366403579712
0.5336565971374512
0.4512806236743927
0.3610759675502777
0.26406699419021606
0.16148006916046143
0.054774291813373566
-0.05433202534914017
-0.16386976838111877
-0.2716519236564636
-0.3753405809402466
-0.47257116436958313
-0.5610968470573425
-0.6389611959457397
-0.7046431303024292
-0.7571421265602112
-0.7959824204444885
-0.8211413025856018
-0.832921028137207
-0.8318222165107727
-0.8184249997138977
-0.7933127880096436
-0.7570292353630066
-0.7100629210472107
-0.6528758406639099
-0.5859329104423523
-0.5097625255584717
-0.42502298951148987
-0.3325772285461426
-0.23354312777519226
-0.1293458342552185
-0.02171970158815384
0.0873226597905159
0.19556501507759094
0.30069974064826965
0.40045443177223206
0.4927261173725128
0.5756895542144775
0.6478729248046875
0.7082093954086304
0.7560338377952576
0.7910715937614441
0.8134111762046814
0.7523270845413208
0.7711759805679321
0.7764937281608582
0.7674257159233093
0.7435795664787292
0.7051532864570618
0.6530151963233948
0.588688313961029
0.5142326354980469
0.43201974034309387
0.3444534242153168
0.25370916724205017
0.16154128313064575
0.06922318786382675
-0.022399164736270905
-0.11276829987764359
-0.20142611861228943
-0.2878420054912567
-0.3712853789329529
-0.45075723528862
-0.5249986052513123
-0.5925493836402893
-0.651842474937439
-0.7013124227523804
-0.739494264125824
-0.7651399374008179
-0.7773051261901855
-0.7754549384117126
-0.7595276832580566
-0.7299796938896179
-0.6877525448799133
-0.6341724395751953
-0.5707796216011047
-0.49914225935935974
-0.42070290446281433
-0.3367106020450592
-0.24824851751327515
-0.15631842613220215
-0.061952315270900726
0.03370293229818344
0.12933337688446045
0.22346338629722595
0.3144865334033966
0.40074291825294495
0.480594664812088
0.5525155067443848
0.6151591539382935
0.6674171090126038
0.7084498405456543
0.7376973628997803
0.7548632025718689
0.7598956823348999
0.7529476284980774
0.7343438267707825
0.7045394778251648
0.664091169834137
0.6136301159858704
0.5538472533226013
0.48549577593803406
0.409395307302475
0.32645559310913086
0.23769676685333252
0.14427831768989563
0.04751690477132797
-0.05109483748674393
-0.14989528059959412
-0.24706032872200012
-0.34064802527427673
-0.42866048216819763
-0.5091390609741211
-0.5802852511405945
-0.6405970454216003
-0.6889833807945251
-0.7248260378837585
-0.7479639053344727
-0.7586106061935425
-0.7572381496429443
-0.7444555163383484
-0.7209088206291199
-0.6872240900993347
-0.6439783573150635
-0.5916949510574341
-0.5308716297149658
-0.4620189964771271
-0.3857097923755646
-0.30263984203338623
-0.2136874496936798
-0.11995995789766312
-0.02282991260290146
0.0760602131485939
0.17483264207839966
0.2714357376098633
0.36374661326408386
0.4496913254261017
0.5273600220680237
0.5951206088066101
0.6516945362091064
0.6962052583694458
0.7281970977783203
0.7476288676261902
0.6716324687004089
0.6896213293075562
0.6947105526924133
0.6860443949699402
0.663345456123352
0.6270340085029602
0.5782662034034729
0.518850564956665
0.4510454833507538
0.3772636353969574
0.29976800084114075
0.2204224169254303
0.1405620574951172
0.06099512428045273
-0.017886437475681305
-0.09592968970537186
-0.1730165183544159
-0.24887984991073608
-0.322968453168869
-0.3943747282028198
-0.46183934807777405
-0.5238125920295715
-0.5785756707191467
-0.6243860125541687
-0.6596314907073975
-0.6829810738563538
-0.6935186386108398
-0.6908475756645203
-0.6751480102539062
-0.6471588015556335
-0.6080809235572815
-0.5593963265419006
-0.5026530027389526
-0.4392711818218231
-0.3704347610473633
-0.29708120226860046
-0.21998384594917297
-0.13986697793006897
-0.05751655250787735
0.026144735515117645
0.11002660542726517
0.19288238883018494
0.2733442485332489
0.34997937083244324
0.4213483929634094
0.4860742390155792
0.5428995490074158
0.5907361507415771
0.6287035942077637
0.6561521887779236
0.6726681590080261
0.6780709624290466
0.6723975539207458
0.6558830738067627
0.6289351582527161
0.5921062231063843
0.546069324016571
0.49158868193626404
0.42950499057769775
0.3607195317745209
0.286192923784256
0.2069442868232727
0.1240622028708458
0.038714699447155
-0.047842927277088165
-0.1342622935771942
-0.21910521388053894
-0.3008516728878021
-0.37792637944221497
-0.44873955845832825
-0.5117552876472473
-0.5655874609947205
-0.6091156601905823
-0.6415810585021973
-0.6626418232917786
-0.6723479628562927
-0.6710659861564636
-0.6593652963638306
-0.6379149556159973
-0.60740065574646
-0.568475604057312
-0.5217387676239014
-0.4677372872829437
-0.4069884121417999
-0.3400123715400696
-0.267372727394104
-0.18973180651664734
-0.10789947956800461
-0.022885046899318695
0.0640680119395256
0.15147140622138977
0.2376103401184082
0.3206064701080322
0.3985098898410797
0.46941664814949036
0.5315914154052734
0.5835848450660706
0.6243186593055725
0.6531442999839783
0.6698698997497559
0.57981938123703
0.59602290391922
0.6003008484840393
0.5919029116630554
0.570742666721344
0.5374818444252014
0.4935065805912018
0.4407713711261749
0.3815292418003082
0.3180171251296997
0.2521781623363495
0.18547064065933228
0.11880963295698166
0.05261930078268051
-0.013030178844928741
-0.07824412733316422
-0.1431131362915039
-0.20754292607307434
-0.2711280286312103
-0.33306923508644104
-0.3921720087528229
-0.4469050467014313
-0.4955250322818756
-0.5362494587898254
-0.5674391984939575
-0.5877937078475952
-0.5964972972869873
-0.5933225750923157
-0.5786494016647339
-0.5533998608589172
-0.5188704133033752
-0.4765210449695587
-0.4277549088001251
-0.37375888228416443
-0.31545165181159973
-0.25352156162261963
-0.1885247528553009
-0.12100336700677872
-0.05156845599412918
0.019046135246753693
0.0899723544716835
0.1602180302143097
0.22869685292243958
0.29426029324531555
0.3557281494140625
0.41193243861198425
0.46175724267959595
0.5041772723197937
0.5383039712905884
0.5634177327156067
0.578994870185852
0.5847273468971252
0.5805225968360901
0.5665059685707092
0.543007493019104
0.5105449557304382
0.4697984755039215
0.42157790064811707
0.3667914569377899
0.3064063787460327
0.24142402410507202
0.17285576462745667
0.10171499103307724
0.029012329876422882
-0.04423580318689346
-0.11699508875608444
-0.18820461630821228
-0.25676408410072327
-0.321529358625412
-0.38131648302078247
-0.43492117524147034
-0.4811690151691437
-0.518998920917511
-0.547573447227478
-0.5663725137710571
-0.5752394795417786
-0.5743674039840698
-0.5642171502113342
-0.5454204678535461
-0.5186840891838074
-0.48471543192863464
-0.4441812336444855
-0.39768359065055847
-0.3457595705986023
-0.28889596462249756
-0.22755420207977295
-0.16221195459365845
-0.09341021627187729
-0.021816350519657135
0.05172283202409744
0.1261296272277832
0.2000778317451477
0.2720077931880951
0.340187132358551
0.402815043926239
0.4581410586833954
0.5046149492263794
0.5409907698631287
0.5664413571357727
0.5806095600128174
0.47770804166793823
0.49120163917541504
0.4941771328449249
0.4860909879207611
0.4670906066894531
0.43804362416267395
0.4004416763782501
0.35618269443511963
0.3072859048843384
0.2556123733520508
0.20265361666679382
0.1494273841381073
0.09647773951292038
0.04395630210638046