# vtk DataFile Version 3.0
2D PINN Solution
ASCII
DATASET STRUCTURED_GRID
DIMENSIONS 100 100 1
POINTS 10000 float
-1.0 -1.0 0.0
-0.9797979797979798 -1.0 0.0
-0.9595959595959596 -1.0 0.0
-0.9393939393939394 -1.0 0.0
-0.9191919191919192 -1.0 0.0
-0.898989898989899 -1.0 0.0
-0.8787878787878788 -1.0 0.0
-0.8585858585858586 -1.0 0.0
-0.8383838383838383 -1.0 0.0
-0.8181818181818181 -1.0 0.0
-0.797979797979798 -1.0 0.0
-0.7777777777777778 -1.0 0.0
-0.7575757575757576 -1.0 0.0
-0.7373737373737373 -1.0 0.0
-0.7171717171717171 -1.0 0.0
-0.696969696969697 -1.0 0.0
-0.6767676767676767 -1.0 0.0
-0.6565656565656566 -1.0 0.0
-0.6363636363636364 -1.0 0.0
-0.6161616161616161 -1.0 0.0
-0.5959595959595959 -1.0 0.0
-0.5757575757575757 -1.0 0.0
-0.5555555555555556 -1.0 0.0
-0.5353535353535352 -1.0 0.0
-0.5151515151515151 -1.0 0.0
-0.4949494949494949 -1.0 0.0
-0.4747474747474747 -1.0 0.0
-0.4545454545454545 -1.0 0.0
-0.43434343434343425 -1.0 0.0
-0.41414141414141414 -1.0 0.0
-0.3939393939393939 -1.0 0.0
-0.3737373737373737 -1.0 0.0
-0.3535353535353535 -1.0 0.0
-0.33333333333333326 -1.0 0.0
-0.31313131313131304 -1.0 0.0
-0.2929292929292928 -1.0 0.0
-0.2727272727272727 -1.0 0.0
-0.2525252525252525 -1.0 0.0
-0.23232323232323226 -1.0 0.0
-0.21212121212121204 -1.0 0.0
-0.19191919191919182 -1.0 0.0
-0.1717171717171716 -1.0 0.0
-0.1515151515151515 -1.0 0.0
-0.13131313131313127 -1.0 0.0
-0.11111111111111105 -1.0 0.0
-0.09090909090909083 -1.0 0.0
-0.07070707070707061 -1.0 0.0
-0.050505050505050386 -1.0 0.0
-0.030303030303030276 -1.0 0.0
-0.010101010101010055 -1.0 0.0
0.010101010101010166 -1.0 0.0
0.030303030303030498 -1.0 0.0
0.05050505050505061 -1.0 0.0
0.07070707070707072 -1.0 0.0
0.09090909090909105 -1.0 0.0
0.11111111111111116 -1.0 0.0
0.1313131313131315 -1.0 0.0
0.1515151515151516 -1.0 0.0
0.1717171717171717 -1.0 0.0
0.19191919191919204 -1.0 0.0
0.21212121212121215 -1.0 0.0
0.2323232323232325 -1.0 0.0
0.2525252525252526 -1.0 0.0
0.27272727272727293 -1.0 0.0
0.29292929292929304 -1.0 0.0
0.31313131313131315 -1.0 0.0
0.3333333333333335 -1.0 0.0
0.3535353535353536 -1.0 0.0
0.3737373737373739 -1.0 0.0
0.39393939393939403 -1.0 0.0
0.41414141414141437 -1.0 0.0
0.4343434343434345 -1.0 0.0
0.4545454545454546 -1.0 0.0
0.4747474747474749 -1.0 0.0
0.49494949494949503 -1.0 0.0
0.5151515151515154 -1.0 0.0
0.5353535353535355 -1.0 0.0
0.5555555555555556 -1.0 0.0
0.5757575757575759 -1.0 0.0
0.595959595959596 -1.0 0.0
0.6161616161616164 -1.0 0.0
0.6363636363636365 -1.0 0.0
0.6565656565656568 -1.0 0.0
0.6767676767676769 -1.0 0.0
0.696969696969697 -1.0 0.0
0.7171717171717173 -1.0 0.0
0.7373737373737375 -1.0 0.0
0.7575757575757578 -1.0 0.0
0.7777777777777779 -1.0 0.0
0.7979797979797982 -1.0 0.0
0.8181818181818183 -1.0 0.0
0.8383838383838385 -1.0 0.0
0.8585858585858588 -1.0 0.0
0.8787878787878789 -1.0 0.0
0.8989898989898992 -1.0 0.0
0.9191919191919193 -1.0 0.0
0.9393939393939394 -1.0 0.0
0.9595959595959598 -1.0 0.0
0.9797979797979799 -1.0 0.0
1.0 -1.0 0.0
-1.0 -0.9797979797979798 0.0
-0.9797979797979798 -0.9797979797979798 0.0
-0.9595959595959596 -0.9797979797979798 0.0
-0.9393939393939394 -0.9797979797979798 0.0
-0.9191919191919192 -0.9797979797979798 0.0
-0.898989898989899 -0.9797979797979798 0.0
-0.8787878787878788 -0.9797979797979798 0.0
-0.8585858585858586 -0.9797979797979798 0.0
-0.8383838383838383 -0.9797979797979798 0.0
-0.8181818181818181 -0.9797979797979798 0.0
-0.797979797979798 -0.9797979797979798 0.0
-0.7777777777777778 -0.9797979797979798 0.0
-0.7575757575757576 -0.9797979797979798 0.0
-0.7373737373737373 -0.9797979797979798 0.0
-0.7171717171717171 -0.9797979797979798 0.0
-0.696969696969697 -0.9797979797979798 0.0
-0.6767676767676767 -0.9797979797979798 0.0
-0.6565656565656566 -0.9797979797979798 0.0
-0.6363636363636364 -0.9797979797979798 0.0
-0.6161616161616161 -0.9797979797979798 0.0
-0.5959595959595959 -0.9797979797979798 0.0
-0.5757575757575757 -0.9797979797979798 0.0
-0.5555555555555556 -0.9797979797979798 0.0
-0.5353535353535352 -0.9797979797979798 0.0
-0.5151515151515151 -0.9797979797979798 0.0
-0.4949494949494949 -0.9797979797979798 0.0
-0.4747474747474747 -0.9797979797979798 0.0
-0.4545454545454545 -0.9797979797979798 0.0
-0.43434343434343425 -0.9797979797979798 0.0
-0.41414141414141414 -0.9797979797979798 0.0
-0.3939393939393939 -0.9797979797979798 0.0
-0.3737373737373737 -0.9797979797979798 0.0
-0.3535353535353535 -0.9797979797979798 0.0
-0.33333333333333326 -0.9797979797979798 0.0
-0.31313131313131304 -0.9797979797979798 0.0
-0.2929292929292928 -0.9797979797979798 0.0
-0.2727272727272727 -0.9797979797979798 0.0
-0.2525252525252525 -0.9797979797979798 0.0
-0.23232323232323226 -0.9797979797979798 0.0
-0.21212121212121204 -0.9797979797979798 0.0
-0.19191919191919182 -0.9797979797979798 0.0
-0.1717171717171716 -0.9797979797979798 0.0
-0.1515151515151515 -0.9797979797979798 0.0
-0.13131313131313127 -0.9797979797979798 0.0
-0.11111111111111105 -0.9797979797979798 0.0
-0.09090909090909083 -0.9797979797979798 0.0
-0.07070707070707061 -0.9797979797979798 0.0
-0.050505050505050386 -0.9797979797979798 0.0
-0.030303030303030276 -0.9797979797979798 0.0
-0.010101010101010055 -0.9797979797979798 0.0
0.010101010101010166 -0.9797979797979798 0.0
0.030303030303030498 -0.9797979797979798 0.0
0.05050505050505061 -0.9797979797979798 0.0
0.07070707070707072 -0.9797979797979798 0.0
0.09090909090909105 -0.9797979797979798 0.0
0.11111111111111116 -0.9797979797979798 0.0
0.1313131313131315 -0.9797979797979798 0.0
0.1515151515151516 -0.9797979797979798 0.0
0.1717171717171717 -0.9797979797979798 0.0
0.19191919191919204 -0.9797979797979798 0.0
0.21212121212121215 -0.9797979797979798 0.0
0.2323232323232325 -0.9797979797979798 0.0
0.2525252525252526 -0.9797979797979798 0.0
0.27272727272727293 -0.9797979797979798 0.0
0.29292929292929304 -0.9797979797979798 0.0
0.31313131313131315 -0.9797979797979798 0.0
0.3333333333333335 -0.9797979797979798 0.0
0.3535353535353536 -0.9797979797979798 0.0
0.3737373737373739 -0.9797979797979798 0.0
0.39393939393939403 -0.9797979797979798 0.0
0.41414141414141437 -0.9797979797979798 0.0
0.4343434343434345 -0.9797979797979798 0.0
0.4545454545454546 -0.9797979797979798 0.0
0.4747474747474749 -0.9797979797979798 0.0
0.49494949494949503 -0.9797979797979798 0.0
0.5151515151515154 -0.9797979797979798 0.0
0.5353535353535355 -0.9797979797979798 0.0
0.5555555555555556 -0.9797979797979798 0.0
0.5757575757575759 -0.9797979797979798 0.0
0.595959595959596 -0.9797979797979798 0.0
0.6161616161616164 -0.9797979797979798 0.0
0.6363636363636365 -0.9797979797979798 0.0
0.6565656565656568 -0.9797979797979798 0.0
0.6767676767676769 -0.9797979797979798 0.0
0.696969696969697 -0.9797979797979798 0.0
0.7171717171717173 -0.9797979797979798 0.0
0.7373737373737375 -0.9797979797979798 0.0
0.7575757575757578 -0.9797979797979798 0.0
0.7777777777777779 -0.9797979797979798 0.0
0.7979797979797982 -0.9797979797979798 0.0
0.8181818181818183 -0.9797979797979798 0.0
0.8383838383838385 -0.9797979797979798 0.0
0.8585858585858588 -0.9797979797979798 0.0
0.8787878787878789 -0.9797979797979798 0.0
0.8989898989898992 -0.9797979797979798 0.0
0.9191919191919193 -0.9797979797979798 0.0
0.9393939393939394 -0.9797979797979798 0.0
0.9595959595959598 -0.9797979797979798 0.0
0.9797979797979799 -0.9797979797979798 0.0
1.0 -0.9797979797979798 0.0
-1.0 -0.9595959595959596 0.0
-0.9797979797979798 -0.9595959595959596 0.0
-0.9595959595959596 -0.9595959595959596 0.0
-0.9393939393939394 -0.9595959595959596 0.0
-0.9191919191919192 -0.9595959595959596 0.0
-0.898989898989899 -0.9595959595959596 0.0
-0.8787878787878788 -0.9595959595959596 0.0
-0.8585858585858586 -0.9595959595959596 0.0
-0.8383838383838383 -0.9595959595959596 0.0
-0.8181818181818181 -0.9595959595959596 0.0
-0.797979797979798 -0.9595959595959596 0.0
-0.7777777777777778 -0.9595959595959596 0.0
-0.7575757575757576 -0.9595959595959596 0.0
-0.7373737373737373 -0.9595959595959596 0.0
-0.7171717171717171 -0.9595959595959596 0.0
-0.696969696969697 -0.9595959595959596 0.0
-0.6767676767676767 -0.9595959595959596 0.0
-0.6565656565656566 -0.9595959595959596 0.0
-0.6363636363636364 -0.9595959595959596 0.0
-0.6161616161616161 -0.9595959595959596 0.0
-0.5959595959595959 -0.9595959595959596 0.0
-0.5757575757575757 -0.9595959595959596 0.0
-0.5555555555555556 -0.9595959595959596 0.0
-0.5353535353535352 -0.9595959595959596 0.0
-0.5151515151515151 -0.9595959595959596 0.0
-0.4949494949494949 -0.9595959595959596 0.0
-0.4747474747474747 -0.9595959595959596 0.0
-0.4545454545454545 -0.9595959595959596 0.0
-0.43434343434343425 -0.9595959595959596 0.0
-0.41414141414141414 -0.9595959595959596 0.0
-0.3939393939393939 -0.9595959595959596 0.0
-0.3737373737373737 -0.9595959595959596 0.0
-0.3535353535353535 -0.9595959595959596 0.0
-0.33333333333333326 -0.9595959595959596 0.0
-0.31313131313131304 -0.9595959595959596 0.0
-0.2929292929292928 -0.9595959595959596 0.0
-0.2727272727272727 -0.9595959595959596 0.0
-0.2525252525252525 -0.9595959595959596 0.0
-0.23232323232323226 -0.9595959595959596 0.0
-0.21212121212121204 -0.9595959595959596 0.0
-0.19191919191919182 -0.9595959595959596 0.0
-0.1717171717171716 -0.9595959595959596 0.0
-0.1515151515151515 -0.9595959595959596 0.0
-0.13131313131313127 -0.9595959595959596 0.0
-0.11111111111111105 -0.9595959595959596 0.0
-0.09090909090909083 -0.9595959595959596 0.0
-0.07070707070707061 -0.9595959595959596 0.0
-0.050505050505050386 -0.9595959595959596 0.0
-0.030303030303030276 -0.9595959595959596 0.0
-0.010101010101010055 -0.9595959595959596 0.0
0.010101010101010166 -0.9595959595959596 0.0
0.030303030303030498 -0.9595959595959596 0.0
0.05050505050505061 -0.9595959595959596 0.0
0.07070707070707072 -0.9595959595959596 0.0
0.09090909090909105 -0.9595959595959596 0.0
0.11111111111111116 -0.9595959595959596 0.0
0.1313131313131315 -0.9595959595959596 0.0
0.1515151515151516 -0.9595959595959596 0.0
0.1717171717171717 -0.9595959595959596 0.0
0.19191919191919204 -0.9595959595959596 0.0
0.21212121212121215 -0.9595959595959596 0.0
[...]
POINT_DATA 10000
SCALARS u float 1
LOOKUP_TABLE default
0.4620335102081299
0.3860737383365631
0.30621302127838135
0.22420954704284668
0.14133799076080322
0.058442674577236176
-0.023918606340885162
-0.10530487447977066
-0.18522903323173523
-0.26304179430007935
-0.3378676772117615
-0.408609539270401
-0.47399821877479553
-0.5326793193817139
-0.5833160281181335
-0.6246832013130188
-0.6557492613792419
-0.6757408380508423
-0.6841742396354675
-0.6808874011039734
-0.6660467386245728
-0.6401378512382507
-0.6039387583732605
-0.5584604144096375
-0.5048772692680359
-0.44442448019981384
-0.3783009946346283
-0.30759280920028687
-0.23322251439094543
-0.15595006942749023
-0.07641007751226425
0.004814557731151581
0.08710508793592453
0.1697155237197876
0.251699298620224
0.3318536579608917
0.4087078869342804
0.480546772480011
0.5454777479171753
0.6015451550483704
0.6468822956085205
0.6798785328865051
0.699347972869873
0.7046770453453064
0.6959059834480286
0.6737339496612549
0.6394221186637878
0.5946125388145447
0.5410951375961304
0.4805801510810852
0.41453662514686584
0.34412023425102234
0.27019202709198
0.19340288639068604
0.11429699510335922
0.03342580795288086
-0.04856719821691513
-0.1308773159980774
-0.21250292658805847
-0.29223325848579407
-0.3686719238758087
-0.44028207659721375
-0.5054721236228943
-0.5626966953277588
-0.6105651259422302
-0.6479399800300598
-0.6740053296089172
-0.6882967948913574
-0.690690815448761
-0.681368887424469
-0.6607561707496643
-0.6294670104980469
-0.5882492065429688
-0.5379438996315002
-0.4794582426548004
-0.4137461483478546
-0.34179720282554626
-0.26463624835014343
-0.18332192301750183
-0.09895846992731094
-0.012712068855762482
0.07417067140340805
0.16034656763076782
0.24437448382377625
0.3247358202934265
0.39988401532173157
0.4683174192905426
0.528663158416748
0.5797658562660217
0.6207475066184998
0.6510453224182129
0.6704241633415222
0.6789497137069702
0.6769638657569885
0.6650412678718567
0.643954873085022
0.6146470904350281
0.578208863735199
0.535859227180481
0.48892727494239807
0.3789518177509308
0.3161484897136688
0.25137943029403687
0.18562132120132446
0.11938353627920151
0.0528462752699852
-0.013963110744953156
-0.08099416643381119
-0.14801636338233948
-0.21452680230140686
-0.27969890832901
-0.34239712357521057
-0.4012483060359955
-0.4547412097454071
-0.5013534426689148
-0.5396777987480164
-0.5685328841209412
-0.5870504975318909
-0.594734251499176
-0.591486930847168
-0.5776086449623108
-0.553764283657074
-0.520912230014801
-0.4802115261554718
-0.4329032599925995
-0.3801901638507843
-0.323138028383255
-0.26261740922927856
-0.19927939772605896
-0.13360175490379333
-0.06595241278409958
0.003314010798931122
0.07376236468553543
0.14478656649589539
0.21554580330848694
0.2849263548851013
0.351533979177475
0.4137295186519623
0.4697079360485077
0.5176213979721069
0.5557449460029602
0.5826674699783325
0.5974652767181396
0.5998391509056091
0.5901609063148499
0.5694050192832947
0.538976788520813
0.50047367811203
0.45543357729911804
0.4051506221294403
0.35059043765068054
0.2924025058746338
0.2310130000114441
0.16674235463142395
0.09992029517889023
0.030976854264736176
-0.0394979864358902
-0.11071879416704178
-0.18169662356376648
-0.25125014781951904
-0.3180364668369293
-0.38060393929481506
-0.43746742606163025
-0.4871983230113983
-0.5285264849662781
-0.5604240298271179
-0.5821821093559265
-0.5934301614761353
-0.5941320657730103
-0.5845484137535095
-0.5651729702949524
-0.5366736650466919
-0.49984022974967957
-0.45553311705589294
-0.40465179085731506
-0.3481059968471527
-0.28679201006889343
-0.22158020734786987
-0.15330639481544495
-0.08277904242277145
-0.010801918804645538
0.06178729981184006
0.13408279418945312
0.20506393909454346
0.2735860347747803
0.3383881151676178
0.39813968539237976
0.4515177309513092
0.4972969889640808
0.5344440340995789
0.56218421459198
0.5800527334213257
0.5879067778587341
0.585919201374054
0.5745541453361511
0.5545339584350586
0.5268056988716125
0.49250760674476624
0.45293548703193665
0.40950140357017517
0.2938339412212372
0.2456914186477661
0.1969480812549591
0.14786800742149353
0.09834357351064682
0.04806893318891525
-0.003288276493549347
-0.05592305213212967
-0.10977358371019363
-0.16443631052970886
-0.21913161873817444
-0.2727256715297699
-0.32380199432373047
-0.3707718551158905
-0.412015825510025
-0.4460330307483673
-0.47157707810401917
-0.4877692759037018
-0.49416640400886536
-0.4907870590686798
-0.4780946671962738
-0.45692017674446106
-0.4283571243286133
-0.39362242817878723
-0.3539144694805145
-0.3102889358997345
-0.263577938079834
-0.21436262130737305
-0.16299870610237122
-0.10968738049268723
-0.05457014590501785
0.002165965735912323
0.06020066887140274
0.11899685114622116
0.17776089906692505
0.23541751503944397
0.29063093662261963
0.3418532907962799
0.38742396235466003
0.4257069528102875
0.45526161789894104
0.4750364124774933
0.48451709747314453
0.48382240533828735
0.4736758768558502
0.45526155829429626
0.42998695373535156
0.3992175757884979
0.36407026648521423
0.325298935174942
0.28330251574516296
0.2382243573665619
0.19009289145469666
0.13895410299301147
0.08498098701238632
0.02853848785161972
-0.029792852699756622
-0.08921129256486893
-0.14871805906295776
-0.20714709162712097
-0.2632140815258026
-0.3155766725540161
-0.3629060685634613
-0.4039648771286011
-0.43769142031669617
-0.46326687932014465
-0.48015889525413513
-0.48813775181770325
-0.48726633191108704
-0.47785332798957825
-0.4604075253009796
-0.43558332324028015
-0.40413692593574524
-0.36688312888145447
-0.32465967535972595
-0.2782909572124481
-0.2285563051700592
-0.176166832447052
-0.1217467412352562
-0.06583631783723831
-0.008922673761844635
0.04852553457021713
0.10599731653928757
0.16287341713905334
0.2183879315853119
0.27159953117370605
0.3214130103588104
0.3666321337223053
0.40604668855667114
0.438536673784256
0.4631692171096802
0.47928065061569214
0.48652568459510803
0.48490169644355774
0.4747394025325775
0.45668455958366394
0.4316519498825073
0.40079110860824585
0.3654279410839081
0.3270128667354584
0.20870661735534668
0.17591744661331177
0.1433788239955902
0.1107776090502739
0.07756634801626205
0.04312457889318466
0.006910108029842377
-0.03141162544488907
-0.07187474519014359
-0.11414710432291031
-0.15750566124916077
-0.20086011290550232
-0.24281927943229675
-0.2818088233470917
-0.3162178695201874
-0.34456202387809753
-0.36563828587532043
-0.3786519467830658
-0.3832892179489136
-0.3797309696674347
-0.3686007559299469
-0.3508560359477997
-0.3276370167732239
-0.3001036047935486
-0.2692842483520508
-0.23597702383995056
-0.20069748163223267
-0.16369959712028503
-0.125041663646698
-0.08467809110879898
-0.042577169835567474
0.0011850371956825256
0.04633883386850357
0.09236364811658859
0.13846486806869507
0.1835787296295166
0.22641974687576294
0.2655576169490814
0.2995377480983734
0.3270372748374939
0.3470345437526703
0.358970046043396
0.36285364627838135
0.35926851630210876
0.34925392270088196
0.33408957719802856
0.3150228261947632
0.293034166097641
0.2687036693096161
0.24219560623168945
0.21335375308990479
0.18186157941818237
0.14740866422653198
0.10982509702444077
0.06917069107294083
0.025773055851459503
-0.01978059858083725
-0.06666585057973862
-0.11387232691049576
-0.1602567732334137
-0.20461052656173706
-0.24572643637657166
-0.28247591853141785
-0.313874751329422
-0.3391411602497101
-0.35773733258247375
-0.3693753480911255
-0.37400683760643005
-0.3717931807041168
-0.3630671203136444
-0.34829506278038025
-0.32804641127586365
-0.3029691278934479
-0.27376267313957214
-0.2411428987979889
-0.20580711960792542
-0.16839256882667542
-0.12944301962852478
-0.08938682824373245
-0.04853302985429764
-0.007096119225025177
0.03476009517908096
0.07685767859220505
0.11893697828054428
0.16058415174484253
0.20119258761405945
0.23994126915931702
0.2758362889289856
0.30777373909950256
0.33464065194129944
0.35543063282966614
0.3693404495716095
0.3758620321750641
0.3748241364955902
0.3664182126522064
0.3511792719364166
0.32995346188545227
0.3038453757762909
0.2741531431674957
0.24229395389556885
0.12489327043294907
0.10742881149053574
0.09068190306425095
0.0739256963133812
0.056334488093853
0.03711869567632675
0.01563849300146103
-0.008501537144184113
-0.03538472205400467
-0.06473255902528763
-0.09589315205812454
-0.12786000967025757
-0.15934452414512634
-0.1888812780380249
-0.21498125791549683
-0.23630324006080627
-0.25180837512016296
-0.2608875036239624
-0.2634267508983612
-0.25978928804397583
-0.25073498487472534
-0.2372651994228363
-0.22045275568962097
-0.20127010345458984
-0.18046167492866516
-0.15847507119178772
-0.13546597957611084
-0.11135327070951462
-0.08592025190591812
-0.05892198532819748
-0.030203185975551605
0.00021664053201675415
0.03207371383905411
0.06482597440481186
0.09765800088644028
0.12951180338859558
0.1591687798500061
0.18535971641540527
0.20690789818763733
0.22290000319480896
0.23283392190933228
0.2367354929447174
0.2351725697517395
0.22916507720947266
0.21997138857841492
0.20882505178451538
0.19667387008666992
0.18401554226875305
0.17086249589920044
0.1568167805671692
0.1412353217601776
0.12342531234025955
0.10280757397413254
0.07904653996229172
0.05211465805768967
0.022304140031337738
-0.009799785912036896
-0.043371446430683136
-0.07741635292768478
-0.11084441095590591
-0.1425575613975525
-0.17152222990989685
-0.19685104489326477
-0.21785512566566467
-0.23408189415931702
-0.24531105160713196
-0.2515329122543335
-0.25289681553840637
-0.24966290593147278
-0.24216428399085999
-0.2307790219783783
-0.2159346044063568
-0.19810667634010315
-0.17781323194503784
-0.15559259057044983
-0.1319710612297058
-0.10741475969552994
-0.0822940245270729
-0.05685446411371231
-0.031206317245960236
-0.005348213016986847
0.020799420773983
0.047325603663921356
0.07426141947507858
0.1015063151717186
0.12876713275909424
0.15552574396133423
0.1810443103313446
0.2044110894203186
0.22462552785873413
0.24070781469345093
0.2518085241317749
0.2573164999485016
0.25693392753601074
0.25071001052856445
0.2390485405921936
0.2226783037185669
0.20259425044059753
0.17999115586280823
0.1561773419380188
0.043114565312862396
0.04038425534963608
0.03861113637685776
0.03680982440710068
0.03400876373052597
0.029351644217967987
0.022178642451763153
0.012084178626537323
-0.001033194363117218
-0.01694668084383011
-0.035089679062366486
-0.054587580263614655
-0.07432044297456741
-0.09303296357393265
-0.10948110371828079
-0.122588612139225
-0.13160094618797302
-0.13618820905685425
-0.13648217916488647
-0.13302192091941833
-0.12663498520851135
-0.11826545745134354
-0.10879234224557877
-0.09888670593500137
-0.08891702443361282
-0.07893715053796768
-0.06873136013746262
-0.05790828913450241
-0.046016134321689606
-0.032661162316799164
-0.017609573900699615
-0.0008636638522148132
0.017293207347393036
0.036286674439907074
0.055281348526477814
0.07325070351362228
0.08908902853727341
0.10175228863954544
0.11042534559965134
0.11468034237623215
0.11460026353597641
0.11080359667539597
0.10437116771936417
0.09664624184370041
0.08895965665578842
0.0823628231883049
0.07741162925958633
0.07410731166601181
0.07193756848573685
0.07003899663686752
0.06739381700754166
0.06302740424871445
0.056168340146541595
0.04635544866323471
0.03348023444414139
0.017789103090763092
-0.00017014890909194946
-0.019614912569522858
-0.03961814194917679
-0.05920015275478363
-0.07742481678724289
-0.0934896394610405
-0.106788270175457
-0.11695728451013565
-0.1238834336400032
-0.12766557931900024
-0.12855863571166992
-0.12689727544784546
-0.12302426248788834
-0.11725378781557083
-0.10985865443944931
-0.10109186917543411
-0.09121475368738174
-0.08051189035177231
-0.0692964419722557
-0.05787625163793564
-0.04652223736047745
-0.03541966527700424
-0.02463800460100174
-0.014122836291790009
-0.0036986544728279114
0.006889335811138153
0.01793142408132553
0.02968456596136093
0.042300425469875336
0.055768243968486786
0.06986825913190842
0.08415397256612778
0.0979774072766304
0.11054538935422897
0.12101458758115768
0.12859591841697693
0.13266512751579285
0.1328490972518921
0.12908032536506653
0.12161501497030258
0.11101879924535751
0.09811136871576309
0.08389780670404434
0.0694921687245369
-0.03633487969636917
-0.025305666029453278
-0.013155020773410797
-0.0010060444474220276
0.010120086371898651
0.019371114671230316
0.02610861510038376
0.02994682639837265
0.03077327460050583
0.02876155823469162
0.02436753362417221
0.018286190927028656
0.011395178735256195
0.004643194377422333
-0.0010815039277076721
-0.005085565149784088
-0.006995506584644318
-0.0068209245800971985
-0.00494704395532608
-0.0020406022667884827
0.0010923370718955994
0.003681086003780365
0.005144588649272919
0.005199335515499115
0.003888942301273346
0.0015570148825645447
-0.0012399181723594666
-0.003843866288661957
-0.005620010197162628
-0.006068684160709381
-0.004911191761493683
-0.002153165638446808
0.001898251473903656
0.006650708615779877
0.011283569037914276
0.014855258166790009
0.01644609123468399
0.01532282680273056
0.011109299957752228
0.003919817507266998
-0.005585290491580963
-0.0162578746676445
-0.02664562314748764
-0.03525317460298538
-0.04083939641714096
-0.04264876991510391
-0.040534861385822296
-0.034943170845508575
-0.026791639626026154
-0.017274998128414154
-0.0076584592461586
0.0009086504578590393
0.007529802620410919
0.011648721992969513
0.013081170618534088
0.011992044746875763
0.008846260607242584
0.0043192580342292786
-0.0007992610335350037
-0.0057186558842659
-0.009739942848682404
-0.012347407639026642
-0.013261698186397552
-0.01245676726102829
-0.010140344500541687
-0.006691314280033112
-0.0025750473141670227
0.0017373636364936829
0.005849681794643402
0.009475789964199066
0.01244642585515976
0.014683283865451813
0.01615358144044876
0.016827978193759918
0.0166618749499321
0.015596754848957062
0.01359277218580246
0.010663770139217377
0.006908901035785675
0.0025324746966362
-0.0021611973643302917
-0.006787098944187164
-0.010919205844402313
-0.014139793813228607
-0.016100861132144928
-0.01657416671514511
-0.015506274998188019
-0.013039626181125641
-0.009517081081867218
-0.005442894995212555
-0.0014255866408348083
0.0019157454371452332
0.0040381476283073425
0.0045688822865486145
0.003360264003276825
0.0005235746502876282
-0.0035779401659965515
-0.008365340530872345
-0.013097800314426422
-0.016942955553531647
-0.11338642984628677
-0.0897955372929573
-0.06487605720758438
-0.03979630023241043
-0.015566803514957428
0.006997637450695038
0.027302972972393036
0.044986091554164886
0.059920839965343475
0.07220795005559921
0.0821540579199791
0.09022542089223862
0.09697943180799484
0.10297026485204697
0.10863517969846725
0.11419602483510971
0.11959131807088852
0.12446161359548569
0.12820979952812195
0.1301218569278717
0.12951922416687012
0.12590080499649048
0.11906012147665024
0.10912155359983444
0.09653248637914658
0.0819878801703453
0.06632827967405319
0.050415776669979095
0.035019777715206146
0.020712263882160187
0.0077963098883628845
-0.003731660544872284
-0.014183051884174347
-0.024127282202243805
-0.03430549055337906
-0.04549092799425125
-0.05832201987504959
-0.07313290983438492
-0.08979741483926773
-0.10765335708856583
-0.12553250789642334
-0.14190927147865295
-0.15515175461769104
-0.16381332278251648
-0.1668863296508789
-0.16396501660346985
-0.1552792191505432
-0.14161261916160583
-0.12413925677537918
-0.10423336178064346
-0.08327136188745499
-0.06248084455728531
-0.042820416390895844
-0.024916552007198334
-0.009042389690876007
0.004854090511798859
0.017092294991016388
0.028166554868221283
0.038639239966869354
0.049030669033527374
0.059718333184719086
0.07087134569883347
0.08241171389818192
0.09403540939092636
0.10525529831647873
0.11548616737127304
0.12412609905004501
0.13064053654670715
0.13461780548095703
0.13580632209777832
0.1341267228126526
0.12964585423469543
0.12253818660974503
0.11303024739027023
0.10136070102453232
0.08775252848863602
0.07242237776517868
0.055602557957172394
0.0375666543841362
0.018654905259609222
-0.0007222369313240051
-0.02008938044309616
-0.038930825889110565
-0.05672181397676468
-0.07296908646821976
-0.08725691586732864
-0.09928766638040543
-0.10891374200582504
-0.11615139991044998
-0.12117037922143936
-0.12426344305276871
-0.12579533457756042
-0.12612709403038025
-0.125559002161026
-0.12426445633172989
-0.12226533144712448
-0.11941585689783096
-0.11542371660470963
-0.10988067835569382
-0.1023041382431984
-0.18802472949028015
-0.1531687080860138
-0.1166471615433693
-0.07961399108171463
-0.04303766041994095
-0.007679976522922516
0.025904260575771332
0.05736520141363144
0.08653535693883896
0.11340796202421188
0.1380942463874817
0.16076654195785522
0.18159127235412598
0.2006504237651825
0.21786469221115112
0.23295065760612488
0.24540695548057556
0.2545779049396515
0.2597392499446869
0.2602357864379883
0.25561127066612244
0.2457011342048645
0.2306821346282959
0.211065411567688
0.18763801455497742
0.16136857867240906
0.13330182433128357
0.104439876973629
0.07563795894384384
0.04751766473054886
0.020408429205417633
-0.0056682005524635315
-0.03097943216562271
-0.05600143224000931
-0.0813024714589119
-0.10738489776849747
-0.1345042884349823
-0.16251635551452637
-0.19077140092849731
-0.21811720728874207
-0.24301379919052124
-0.26375851035118103
-0.27875688672065735
-0.2867819368839264
-0.2871585488319397
-0.27983182668685913
-0.2653268873691559
-0.24462935328483582
-0.21901896595954895
-0.1898997724056244
-0.15863966941833496
-0.12645453214645386
-0.09431307762861252
-0.06289490312337875
-0.03257913142442703
-0.003468714654445648
0.024543948471546173
0.05168993026018143
0.07821529358625412
0.10427949577569962
0.12987187504768372
0.1547662317752838
0.17852166295051575
0.20053422451019287
0.220102459192276
0.23651570081710815
0.24912381172180176
0.25738978385925293
0.26093223690986633
0.2595411241054535
0.25320178270339966
0.24208897352218628
0.22653815150260925
0.20700445771217346
0.1839980185031891
0.15803244709968567
0.1296023428440094
0.09918010979890823
0.06722614914178848
0.03421812504529953
0.000662975013256073
-0.03289742022752762
-0.06588520854711533
-0.09770352393388748
-0.12776046991348267
-0.15549251437187195
-0.18039405345916748
-0.2020522952079773
-0.2201622724533081
-0.23454251885414124
-0.24513337016105652
-0.25197720527648926
-0.255188912153244
-0.25491952896118164
-0.25132107734680176
-0.24451133608818054
-0.23456132411956787
-0.22148272395133972
-0.2052384316921234
-0.1857454478740692
-0.26015040278434753
-0.21533596515655518
-0.16833820939064026
-0.1202617660164833
-0.07201681286096573
-0.024321414530277252
0.022293291985988617
0.06745418161153793
0.11091332882642746
0.15250205993652344
0.19207137823104858
0.22943520545959473
0.26430198550224304
0.2962319552898407
0.32461050152778625
0.348665326833725
0.3675321340560913
0.3803497850894928
0.3863885700702667
0.3851563334465027
0.37648072838783264
0.36054953932762146
0.3378913402557373
0.3093265891075134
0.27588608860969543
0.23871493339538574
0.1989717185497284
0.15773147344589233
0.11589548736810684
0.0741194412112236
0.03278221935033798
-0.00802680104970932
-0.04845214635133743
-0.08878163248300552
-0.12930122017860413
-0.1701255738735199
-0.21103906631469727
-0.2513776421546936
-0.29000625014305115
-0.32540181279182434
-0.35584262013435364
-0.3796592652797699
-0.39548078179359436
-0.40242332220077515
-0.40017250180244446
-0.3889768123626709
-0.3695509433746338
-0.3429534137248993
-0.31043222546577454
-0.27329760789871216
-0.23281130194664001
-0.19010129570960999
-0.14610880613327026
-0.10155857354402542
-0.056953512132167816
-0.01260378211736679
0.031317852437496185
0.07469645887613297
0.11737703531980515
0.15908479690551758
0.19937366247177124
0.2376095950603485
0.27301615476608276
0.3047460615634918
0.33195826411247253
0.3538953959941864
0.3699272572994232
0.37956783175468445
0.38249167799949646
0.3785388767719269
0.36774078011512756
0.3503386378288269
0.32677900791168213
0.2976897656917572
0.2638138234615326
0.22594258189201355
0.18485262989997864
0.14126884937286377
0.09586282819509506
0.049261607229709625
0.002074502408504486