# vtk DataFile Version 3.0
2D PINN Solution
ASCII
DATASET STRUCTURED_GRID
DIMENSIONS 100 100 1
POINTS 10000 float
-1.0 -1.0 0.0
-0.9797979797979798 -1.0 0.0
-0.9595959595959596 -1.0 0.0
-0.9393939393939394 -1.0 0.0
-0.9191919191919192 -1.0 0.0
-0.898989898989899 -1.0 0.0
-0.8787878787878788 -1.0 0.0
-0.8585858585858586 -1.0 0.0
-0.8383838383838383 -1.0 0.0
-0.8181818181818181 -1.0 0.0
-0.797979797979798 -1.0 0.0
-0.7777777777777778 -1.0 0.0
-0.7575757575757576 -1.0 0.0
-0.7373737373737373 -1.0 0.0
-0.7171717171717171 -1.0 0.0
-0.696969696969697 -1.0 0.0
-0.6767676767676767 -1.0 0.0
-0.6565656565656566 -1.0 0.0
-0.6363636363636364 -1.0 0.0
-0.6161616161616161 -1.0 0.0
-0.5959595959595959 -1.0 0.0
-0.5757575757575757 -1.0 0.0
-0.5555555555555556 -1.0 0.0
-0.5353535353535352 -1.0 0.0
-0.5151515151515151 -1.0 0.0
-0.4949494949494949 -1.0 0.0
-0.4747474747474747 -1.0 0.0
-0.4545454545454545 -1.0 0.0
-0.43434343434343425 -1.0 0.0
-0.41414141414141414 -1.0 0.0
-0.3939393939393939 -1.0 0.0
-0.3737373737373737 -1.0 0.0
-0.3535353535353535 -1.0 0.0
-0.33333333333333326 -1.0 0.0
-0.31313131313131304 -1.0 0.0
-0.2929292929292928 -1.0 0.0
-0.2727272727272727 -1.0 0.0
-0.2525252525252525 -1.0 0.0
-0.23232323232323226 -1.0 0.0
-0.21212121212121204 -1.0 0.0
-0.19191919191919182 -1.0 0.0
-0.1717171717171716 -1.0 0.0
-0.1515151515151515 -1.0 0.0
-0.13131313131313127 -1.0 0.0
-0.11111111111111105 -1.0 0.0
-0.09090909090909083 -1.0 0.0
-0.07070707070707061 -1.0 0.0
-0.050505050505050386 -1.0 0.0
-0.030303030303030276 -1.0 0.0
-0.010101010101010055 -1.0 0.0
0.010101010101010166 -1.0 0.0
0.030303030303030498 -1.0 0.0
0.05050505050505061 -1.0 0.0
0.07070707070707072 -1.0 0.0
0.09090909090909105 -1.0 0.0
0.11111111111111116 -1.0 0.0
0.1313131313131315 -1.0 0.0
0.1515151515151516 -1.0 0.0
0.1717171717171717 -1.0 0.0
0.19191919191919204 -1.0 0.0
0.21212121212121215 -1.0 0.0
0.2323232323232325 -1.0 0.0
0.2525252525252526 -1.0 0.0
0.27272727272727293 -1.0 0.0
0.29292929292929304 -1.0 0.0
0.31313131313131315 -1.0 0.0
0.3333333333333335 -1.0 0.0
0.3535353535353536 -1.0 0.0
0.3737373737373739 -1.0 0.0
0.39393939393939403 -1.0 0.0
0.41414141414141437 -1.0 0.0
0.4343434343434345 -1.0 0.0
0.4545454545454546 -1.0 0.0
0.4747474747474749 -1.0 0.0
0.49494949494949503 -1.0 0.0
0.5151515151515154 -1.0 0.0
0.5353535353535355 -1.0 0.0
0.5555555555555556 -1.0 0.0
0.5757575757575759 -1.0 0.0
0.595959595959596 -1.0 0.0
0.6161616161616164 -1.0 0.0
0.6363636363636365 -1.0 0.0
0.6565656565656568 -1.0 0.0
0.6767676767676769 -1.0 0.0
0.696969696969697 -1.0 0.0
0.7171717171717173 -1.0 0.0
0.7373737373737375 -1.0 0.0
0.7575757575757578 -1.0 0.0
0.7777777777777779 -1.0 0.0
0.7979797979797982 -1.0 0.0
0.8181818181818183 -1.0 0.0
0.8383838383838385 -1.0 0.0
0.8585858585858588 -1.0 0.0
0.8787878787878789 -1.0 0.0
0.8989898989898992 -1.0 0.0
0.9191919191919193 -1.0 0.0
0.9393939393939394 -1.0 0.0
0.9595959595959598 -1.0 0.0
0.9797979797979799 -1.0 0.0
1.0 -1.0 0.0
-1.0 -0.9797979797979798 0.0
-0.9797979797979798 -0.9797979797979798 0.0
-0.9595959595959596 -0.9797979797979798 0.0
-0.9393939393939394 -0.9797979797979798 0.0
-0.9191919191919192 -0.9797979797979798 0.0
-0.898989898989899 -0.9797979797979798 0.0
-0.8787878787878788 -0.9797979797979798 0.0
-0.8585858585858586 -0.9797979797979798 0.0
-0.8383838383838383 -0.9797979797979798 0.0
-0.8181818181818181 -0.9797979797979798 0.0
-0.797979797979798 -0.9797979797979798 0.0
-0.7777777777777778 -0.9797979797979798 0.0
-0.7575757575757576 -0.9797979797979798 0.0
-0.7373737373737373 -0.9797979797979798 0.0
-0.7171717171717171 -0.9797979797979798 0.0
-0.696969696969697 -0.9797979797979798 0.0
-0.6767676767676767 -0.9797979797979798 0.0
-0.6565656565656566 -0.9797979797979798 0.0
-0.6363636363636364 -0.9797979797979798 0.0
-0.6161616161616161 -0.9797979797979798 0.0
-0.5959595959595959 -0.9797979797979798 0.0
-0.5757575757575757 -0.9797979797979798 0.0
-0.5555555555555556 -0.9797979797979798 0.0
-0.5353535353535352 -0.9797979797979798 0.0
-0.5151515151515151 -0.9797979797979798 0.0
-0.4949494949494949 -0.9797979797979798 0.0
-0.4747474747474747 -0.9797979797979798 0.0
-0.4545454545454545 -0.9797979797979798 0.0
-0.43434343434343425 -0.9797979797979798 0.0
-0.41414141414141414 -0.9797979797979798 0.0
-0.3939393939393939 -0.9797979797979798 0.0
-0.3737373737373737 -0.9797979797979798 0.0
-0.3535353535353535 -0.9797979797979798 0.0
-0.33333333333333326 -0.9797979797979798 0.0
-0.31313131313131304 -0.9797979797979798 0.0
-0.2929292929292928 -0.9797979797979798 0.0
-0.2727272727272727 -0.9797979797979798 0.0
-0.2525252525252525 -0.9797979797979798 0.0
-0.23232323232323226 -0.9797979797979798 0.0
-0.21212121212121204 -0.9797979797979798 0.0
-0.19191919191919182 -0.9797979797979798 0.0
-0.1717171717171716 -0.9797979797979798 0.0
-0.1515151515151515 -0.9797979797979798 0.0
-0.13131313131313127 -0.9797979797979798 0.0
-0.11111111111111105 -0.9797979797979798 0.0
-0.09090909090909083 -0.9797979797979798 0.0
-0.07070707070707061 -0.9797979797979798 0.0
-0.050505050505050386 -0.9797979797979798 0.0
-0.030303030303030276 -0.9797979797979798 0.0
-0.010101010101010055 -0.9797979797979798 0.0
0.010101010101010166 -0.9797979797979798 0.0
0.030303030303030498 -0.9797979797979798 0.0
0.05050505050505061 -0.9797979797979798 0.0
0.07070707070707072 -0.9797979797979798 0.0
0.09090909090909105 -0.9797979797979798 0.0
0.11111111111111116 -0.9797979797979798 0.0
0.1313131313131315 -0.9797979797979798 0.0
0.1515151515151516 -0.9797979797979798 0.0
0.1717171717171717 -0.9797979797979798 0.0
0.19191919191919204 -0.9797979797979798 0.0
0.21212121212121215 -0.9797979797979798 0.0
0.2323232323232325 -0.9797979797979798 0.0
0.2525252525252526 -0.9797979797979798 0.0
0.27272727272727293 -0.9797979797979798 0.0
0.29292929292929304 -0.9797979797979798 0.0
0.31313131313131315 -0.9797979797979798 0.0
0.3333333333333335 -0.9797979797979798 0.0
0.3535353535353536 -0.9797979797979798 0.0
0.3737373737373739 -0.9797979797979798 0.0
0.39393939393939403 -0.9797979797979798 0.0
0.41414141414141437 -0.9797979797979798 0.0
0.4343434343434345 -0.9797979797979798 0.0
0.4545454545454546 -0.9797979797979798 0.0
0.4747474747474749 -0.9797979797979798 0.0
0.49494949494949503 -0.9797979797979798 0.0
0.5151515151515154 -0.9797979797979798 0.0
0.5353535353535355 -0.9797979797979798 0.0
0.5555555555555556 -0.9797979797979798 0.0
0.5757575757575759 -0.9797979797979798 0.0
0.595959595959596 -0.9797979797979798 0.0
0.6161616161616164 -0.9797979797979798 0.0
0.6363636363636365 -0.9797979797979798 0.0
0.6565656565656568 -0.9797979797979798 0.0
0.6767676767676769 -0.9797979797979798 0.0
0.696969696969697 -0.9797979797979798 0.0
0.7171717171717173 -0.9797979797979798 0.0
0.7373737373737375 -0.9797979797979798 0.0
0.7575757575757578 -0.9797979797979798 0.0
0.7777777777777779 -0.9797979797979798 0.0
0.7979797979797982 -0.9797979797979798 0.0
0.8181818181818183 -0.9797979797979798 0.0
0.8383838383838385 -0.9797979797979798 0.0
0.8585858585858588 -0.9797979797979798 0.0
0.8787878787878789 -0.9797979797979798 0.0
0.8989898989898992 -0.9797979797979798 0.0
0.9191919191919193 -0.9797979797979798 0.0
0.9393939393939394 -0.9797979797979798 0.0
0.9595959595959598 -0.9797979797979798 0.0
0.9797979797979799 -0.9797979797979798 0.0
1.0 -0.9797979797979798 0.0
-1.0 -0.9595959595959596 0.0
-0.9797979797979798 -0.9595959595959596 0.0
-0.9595959595959596 -0.9595959595959596 0.0
-0.9393939393939394 -0.9595959595959596 0.0
-0.9191919191919192 -0.9595959595959596 0.0
-0.898989898989899 -0.9595959595959596 0.0
-0.8787878787878788 -0.9595959595959596 0.0
-0.8585858585858586 -0.9595959595959596 0.0
-0.8383838383838383 -0.9595959595959596 0.0
-0.8181818181818181 -0.9595959595959596 0.0
-0.797979797979798 -0.9595959595959596 0.0
-0.7777777777777778 -0.9595959595959596 0.0
-0.7575757575757576 -0.9595959595959596 0.0
-0.7373737373737373 -0.9595959595959596 0.0
-0.7171717171717171 -0.9595959595959596 0.0
-0.696969696969697 -0.9595959595959596 0.0
-0.6767676767676767 -0.9595959595959596 0.0
-0.6565656565656566 -0.9595959595959596 0.0
-0.6363636363636364 -0.9595959595959596 0.0
-0.6161616161616161 -0.9595959595959596 0.0
-0.5959595959595959 -0.9595959595959596 0.0
-0.5757575757575757 -0.9595959595959596 0.0
-0.5555555555555556 -0.9595959595959596 0.0
-0.5353535353535352 -0.9595959595959596 0.0
-0.5151515151515151 -0.9595959595959596 0.0
-0.4949494949494949 -0.9595959595959596 0.0
-0.4747474747474747 -0.9595959595959596 0.0
-0.4545454545454545 -0.9595959595959596 0.0
-0.43434343434343425 -0.9595959595959596 0.0
-0.41414141414141414 -0.9595959595959596 0.0
-0.3939393939393939 -0.9595959595959596 0.0
-0.3737373737373737 -0.9595959595959596 0.0
-0.3535353535353535 -0.9595959595959596 0.0
-0.33333333333333326 -0.9595959595959596 0.0
-0.31313131313131304 -0.9595959595959596 0.0
-0.2929292929292928 -0.9595959595959596 0.0
-0.2727272727272727 -0.9595959595959596 0.0
-0.2525252525252525 -0.9595959595959596 0.0
-0.23232323232323226 -0.9595959595959596 0.0
-0.21212121212121204 -0.9595959595959596 0.0
-0.19191919191919182 -0.9595959595959596 0.0
-0.1717171717171716 -0.9595959595959596 0.0
-0.1515151515151515 -0.9595959595959596 0.0
-0.13131313131313127 -0.9595959595959596 0.0
-0.11111111111111105 -0.9595959595959596 0.0
-0.09090909090909083 -0.9595959595959596 0.0
-0.07070707070707061 -0.9595959595959596 0.0
-0.050505050505050386 -0.9595959595959596 0.0
-0.030303030303030276 -0.9595959595959596 0.0
-0.010101010101010055 -0.9595959595959596 0.0
0.010101010101010166 -0.9595959595959596 0.0
0.030303030303030498 -0.9595959595959596 0.0
0.05050505050505061 -0.9595959595959596 0.0
0.07070707070707072 -0.9595959595959596 0.0
0.09090909090909105 -0.9595959595959596 0.0
0.11111111111111116 -0.9595959595959596 0.0
0.1313131313131315 -0.9595959595959596 0.0
0.1515151515151516 -0.9595959595959596 0.0
0.1717171717171717 -0.9595959595959596 0.0
0.19191919191919204 -0.9595959595959596 0.0
0.21212121212121215 -0.9595959595959596 0.0
[...]
POINT_DATA 10000
SCALARS u float 1
LOOKUP_TABLE default
0.9735590815544128
0.9622804522514343
0.9339122176170349
0.8874331116676331
0.8222923278808594
0.7386167645454407
0.6373985409736633
0.5206224918365479
0.3912564516067505
0.2530652582645416
0.11028466373682022
-0.03278864175081253
-0.1721973717212677
-0.3045960068702698
-0.42739978432655334
-0.5387735366821289
-0.6375425457954407
-0.7230471968650818
-0.795000433921814
-0.8533571362495422
-0.898210346698761
-0.9297163486480713
-0.948039710521698
-0.9533262848854065
-0.945688784122467
-0.9252188801765442
-0.8920080661773682
-0.8461865186691284
-0.7879743576049805
-0.7177374362945557
-0.6360411047935486
-0.5436990857124329
-0.44180580973625183
-0.33174189925193787
-0.21515682339668274
-0.09393376857042313
0.02987184375524521
0.154098242521286
0.27654823660850525
0.3950587809085846
0.5075675845146179
0.6121607422828674
0.7071099877357483
0.7908867001533508
0.8621648550033569
0.9198022484779358
0.9628288149833679
0.9904323220252991
1.0019673109054565
0.9969766736030579
0.9752436280250549
0.9368605017662048
0.8822956681251526
0.812446117401123
0.7286511063575745
0.6326454877853394
0.526464581489563
0.41230320930480957
0.2923968434333801
0.1689108908176422
0.04389026015996933
-0.08073795586824417
-0.20315119624137878
-0.32160016894340515
-0.4344078004360199
-0.5399758815765381
-0.6368191838264465
-0.7235915660858154
-0.7991114258766174
-0.8623706102371216
-0.9125352501869202
-0.9489338994026184
-0.9710461497306824
-0.978489100933075
-0.9710116982460022
-0.9484921097755432
-0.9109525084495544
-0.8585752844810486
-0.7917436957359314
-0.7110880613327026
-0.6175362467765808
-0.5123699903488159
-0.397263765335083
-0.2742927074432373
-0.14590567350387573
-0.01483958214521408
0.11600517481565475
0.24373304843902588
0.3656185567378998
0.4792720079421997
0.5827478170394897
0.6746122241020203
0.753944456577301
0.8202972412109375
0.8736233115196228
0.9141862988471985
0.9424671530723572
0.9590845704078674
0.9647300243377686
0.9601170420646667
0.955588161945343
0.9425575137138367
0.9118196368217468
0.862615168094635
0.7948089241981506
0.7090635299682617
0.6069604754447937
0.4910039007663727
0.36447903513908386
0.23116958141326904
0.09500112384557724
-0.040306456387043
-0.1715071201324463
-0.2959595322608948
-0.4116421043872833
-0.5170956254005432
-0.6113061308860779
-0.6936032176017761
-0.7635679841041565
-0.8209525942802429
-0.8656205534934998
-0.8975061774253845
-0.9165818095207214
-0.9228402376174927
-0.9162907004356384
-0.8969698548316956
-0.864968478679657
-0.8204650282859802
-0.7637711763381958
-0.6953771710395813
-0.6159841418266296
-0.5265287756919861
-0.42818212509155273
-0.3223269581794739
-0.21052435040473938
-0.09447038918733597
0.02404148131608963
0.14315319061279297
0.26096343994140625
0.3755514323711395
0.48500385880470276
0.5874465107917786
0.6810874938964844
0.7642472982406616
0.8353955745697021
0.8931637406349182
0.936363935470581
0.9640032052993774
0.975317656993866
0.969817578792572
0.9473562836647034
0.9081948399543762
0.853059709072113
0.783158004283905
0.700126588344574
0.6059289574623108
0.5027016997337341
0.39259305596351624
0.27764585614204407
0.15972495079040527
0.04052624851465225
-0.07837653905153275
-0.19545936584472656
-0.3091902434825897
-0.4180053472518921
-0.5203250050544739
-0.6146018505096436
-0.6993788480758667
-0.7733440399169922
-0.8353707194328308
-0.884531557559967
-0.9201033115386963
-0.9415529370307922
-0.9485242962837219
-0.9408236145973206
-0.9184128642082214
-0.8814015984535217
-0.8300639986991882
-0.764853835105896
-0.6864417195320129
-0.5957561135292053
-0.49402883648872375
-0.3828306794166565
-0.2640925645828247
-0.1400851011276245
-0.013363935053348541
0.11333461850881577
0.2372349202632904
0.3556753695011139
0.4662691056728363
0.5670202374458313
0.656408429145813
0.7334105372428894
0.7974799871444702
0.848486602306366
0.8866308331489563
0.9123566150665283
0.9262704849243164
0.9290690422058105
0.921496570110321
0.9189361929893494
0.9034205079078674
0.870029866695404
0.8184384107589722
0.749079704284668
0.6632388830184937
0.5630528926849365
0.4513774812221527
0.3315289318561554
0.20696943998336792
0.08099719136953354
-0.04347092658281326
-0.16400599479675293
-0.2786683142185211
-0.3859345316886902
-0.4846036732196808
-0.5737175345420837
-0.6524946689605713
-0.7202978134155273
-0.7766121029853821
-0.8210251927375793
-0.8532204031944275
-0.8729614615440369
-0.8800927996635437
-0.8745346665382385
-0.8563037514686584
-0.8255296349525452
-0.7824923992156982
-0.7276468276977539
-0.6616544127464294
-0.5853862166404724
-0.4999127686023712
-0.40647098422050476
-0.30641651153564453
-0.2011774182319641
-0.09221474081277847
0.01898791640996933
0.13092100620269775
0.24201905727386475
0.35064372420310974
0.45507314801216125
0.5535135865211487
0.6441376805305481
0.7251377701759338
0.7947853207588196
0.8514894843101501
0.8938491940498352
0.9207130074501038
0.9312325119972229
0.9249415993690491
0.9018265008926392
0.8623831868171692
0.8076385259628296
0.7391042113304138
0.6586607098579407
0.568392813205719
0.4704025089740753
0.3666572570800781
0.2588997483253479
0.1486392766237259
0.03720474988222122
-0.07416690140962601
-0.1842270791530609
-0.2916443943977356
-0.39497044682502747
-0.4926516115665436
-0.583091676235199
-0.6647286415100098
-0.7361220717430115
-0.7960184812545776
-0.8433908820152283
-0.8774605989456177
-0.8976899981498718
-0.9037675261497498
-0.8955827355384827
-0.8732095956802368
-0.8368862271308899
-0.7870115637779236
-0.7241449356079102
-0.6490257978439331
-0.5625990629196167
-0.46604928374290466
-0.3608299195766449
-0.24867859482765198
-0.13161969184875488
-0.011925734579563141
0.10794883221387863
0.22547703981399536
0.3381786048412323
0.4437609612941742
0.5402381420135498
0.6260240077972412
0.6999800801277161
0.7614185810089111
0.8100631833076477
0.8459914922714233
0.8695496320724487
0.8812761902809143
0.8818404078483582
0.8719837069511414
0.8635033965110779
0.8450440168380737
0.8091453909873962
0.7560680508613586
0.6868899464607239
0.603484034538269
0.5083770155906677
0.4044937789440155
0.2948604226112366
0.18231642246246338
0.0693381056189537
-0.04204068332910538
-0.15018922090530396
-0.25378358364105225
-0.351688951253891
-0.4428727924823761
-0.5263478755950928
-0.6011682152748108
-0.6664404273033142
-0.721351683139801
-0.7652000784873962
-0.7974085211753845
-0.8175371885299683
-0.8252937197685242
-0.8205392360687256
-0.8033048510551453
-0.7738094925880432
-0.7324767112731934
-0.6799478530883789
-0.6170785427093506
-0.5449086427688599
-0.4646201431751251
-0.3774702847003937
-0.2847326695919037
-0.1876455843448639
-0.08740339428186417
0.0148397758603096
0.11791586130857468
0.22058957815170288
0.32149919867515564
0.4191227853298187
0.5117716193199158
0.5976216197013855
0.6747754216194153
0.7413508296012878
0.7955747246742249
0.8358814120292664
0.8610100746154785
0.8701017498970032
0.8627866506576538
0.8392541408538818
0.8002813458442688
0.747190535068512
0.6817333102226257
0.6059089303016663
0.5217640399932861
0.43120846152305603
0.3359021246433258
0.2372245490550995
0.13631579279899597
0.03417148441076279
-0.06824786216020584
-0.16991445422172546
-0.2696572542190552
-0.3661268651485443
-0.4578110873699188
-0.5430961847305298
-0.6203508377075195
-0.6880365014076233
-0.7447947859764099
-0.7895153760910034
-0.8213759064674377
-0.8398455381393433
-0.8446707725524902
-0.8358439803123474
-0.8135697841644287
-0.7782326936721802
-0.7303692102432251
-0.6706588268280029
-0.5999190211296082
-0.5191144943237305
-0.42938128113746643
-0.3320360779762268
-0.22859999537467957
-0.12080124765634537
-0.010560013353824615
0.1000419482588768
0.208825021982193
0.313594788312912
0.41224923729896545
0.502880871295929
0.5838788151741028
0.6539896726608276
0.7123598456382751
0.7585293650627136
0.7923906445503235
0.8141360282897949
0.8241900205612183
0.8231496214866638
0.8117300868034363
0.7898240685462952
0.7683871388435364
0.7306886315345764
0.6776403784751892
0.6109246611595154
0.5328305959701538
0.4459932744503021
0.3530888259410858
0.2565652132034302
0.1584676206111908
0.060391686856746674
-0.03645838052034378
-0.13113939762115479
-0.22281557321548462
-0.31063926219940186
-0.3936726748943329
-0.47086700797080994
-0.5410958528518677
-0.6032107472419739
-0.6561150550842285
-0.6988210082054138
-0.7305101752281189
-0.7505573630332947
-0.7585634589195251
-0.7543664574623108
-0.7380541563034058
-0.709976851940155
-0.6707387566566467
-0.6211855411529541
-0.5623587965965271
-0.4954317510128021
-0.42163506150245667
-0.3421732485294342
-0.2581663727760315
-0.17061930894851685
-0.08043365925550461
0.01154782623052597
0.10446342080831528
0.19735977053642273
0.2891100347042084
0.3783692419528961
0.46355971693992615
0.5428916215896606
0.6144378185272217
0.6762335300445557
0.7264042496681213
0.763307511806488
0.7856705188751221
0.7927184700965881
0.7842678427696228
0.7607728838920593
0.7232937216758728
0.6733843684196472
0.6129036545753479
0.5437955856323242
0.4678836762905121
0.3867383301258087
0.3016226291656494
0.2135297954082489
0.12326490134000778
0.03155876696109772
-0.06082785129547119
-0.15301144123077393
-0.24392715096473694
-0.33230599761009216
-0.41668590903282166
-0.4954734146595001
-0.5670254826545715
-0.629763126373291
-0.6822773814201355
-0.7234181761741638
-0.752346396446228
-0.7685624957084656
-0.7718796133995056
-0.7624010443687439
-0.7404605150222778
-0.7065807580947876
-0.6614311337471008
-0.6057958006858826
-0.5405569672584534
-0.466692179441452
-0.3852727711200714
-0.29747477173805237
-0.20458287000656128
-0.10800576955080032
-0.00928054004907608
0.08993562310934067
0.1878781020641327
0.2827191650867462
0.3726266026496887
0.4558505415916443
0.530803918838501
0.5961560606956482
0.6508898735046387
0.6943327784538269
0.7261607050895691
0.7463638186454773
0.7552089095115662
0.7531803250312805
0.7409390807151794
0.69915372133255
0.6752563714981079
0.637065052986145
0.5860980153083801
0.524462878704071
0.45458218455314636
0.3788754642009735
0.2994913160800934
0.21813169121742249
0.13600382208824158
0.0538974329829216
-0.027673907577991486
-0.10829756408929825
-0.187501460313797
-0.26463350653648376
-0.33881524205207825
-0.4089350998401642
-0.47370854020118713
-0.5317723155021667
-0.5817785859107971
-0.622500479221344
-0.6529092192649841
-0.6722384691238403
-0.6800222992897034
-0.6761195063591003
-0.6607230305671692
-0.6343444585800171
-0.5977854132652283
-0.5520802140235901
-0.4984109699726105
-0.4380144774913788
-0.3720757067203522
-0.3016607463359833
-0.2276686728000641
-0.15083232522010803
-0.07176700979471207
0.008958540856838226
0.09073411673307419
0.17281240224838257
0.2542399764060974
0.33380624651908875
0.41002991795539856
0.48118463158607483
0.5453717112541199
0.6006370186805725
0.6451217532157898
0.6772354245185852
0.6958262324333191
0.7003208994865417
0.6908066868782043
0.6680295467376709
0.6332843899726868
0.5882317423820496
0.534656822681427
0.4742492139339447
0.4084417521953583
0.33835360407829285
0.26481470465660095
0.18844667077064514
0.10978227108716965
0.029365144670009613
-0.052158258855342865
-0.13397860527038574
-0.21508631110191345
-0.29426154494285583
-0.37010058760643005
-0.4410652220249176
-0.5055645108222961
-0.5620578527450562
-0.609165608882904
-0.6457639932632446
-0.6710555553436279
-0.6845945119857788
-0.6862770318984985
-0.6763034462928772
-0.6551170945167542
-0.6233481764793396
-0.5817606449127197
-0.5312091112136841
-0.4726105034351349
-0.40692657232284546
-0.33515214920043945
-0.258307546377182
-0.17744600772857666
-0.0936552956700325
-0.008084528148174286
0.07804187387228012
0.16340529918670654
0.24658837914466858
0.32609331607818604
0.40039360523223877
0.4680030345916748
0.527560830116272
0.5779194235801697
0.6182069182395935
0.6478666067123413
0.6666623950004578
0.6746644377708435
0.6722164750099182
0.6598960757255554
0.5935167670249939
0.5682563781738281
0.5313984751701355
0.4848872721195221
0.4309708774089813
0.37187978625297546
0.3095380663871765
0.24539434909820557
0.1803642213344574
0.1149008497595787
0.04914095252752304
-0.01691821962594986
-0.08323759585618973
-0.14959213137626648
-0.2154683768749237
-0.2800275385379791
-0.3421226739883423
-0.4003628194332123
-0.45322707295417786
-0.4991895258426666
-0.536843478679657
-0.5650168061256409
-0.5828588008880615
-0.5898972153663635
-0.5860626101493835
-0.5716864466667175
-0.5474621057510376
-0.514370858669281
-0.4735839068889618
-0.4263428747653961
-0.37383654713630676
-0.31710949540138245
-0.25700250267982483
-0.19413956999778748
-0.12897232174873352
-0.06185189634561539
0.006875969469547272
0.07677607983350754
0.14723557233810425
0.21740594506263733
0.28615814447402954
0.35208791494369507
0.41354596614837646
0.46872785687446594
0.5157908201217651
0.5530301332473755
0.5790647864341736
0.5930156111717224
0.5946324467658997
0.584335207939148
0.563139021396637
0.5324692726135254
0.49392083287239075
0.4490090310573578
0.3989904224872589
0.34479042887687683
0.28702083230018616
0.22608065605163574
0.16227290034294128
0.09592115134000778
0.02745666354894638
-0.0425238162279129
-0.11322516947984695
-0.18364936113357544
-0.2526090443134308
-0.31875401735305786
-0.3806345760822296
-0.4367692172527313
-0.48573991656303406
-0.5262903571128845
-0.5574129819869995
-0.5784180164337158
-0.5889573693275452
-0.5890144109725952
-0.5788678526878357
-0.5590254664421082
-0.5301719307899475
-0.49310657382011414
-0.4486987292766571
-0.3978566527366638
-0.3414910137653351
-0.2804981768131256
-0.21573910117149353
-0.14803868532180786
-0.07818620651960373
-0.006966061890125275
0.06481005996465683
0.13625681400299072
0.2063780128955841
0.2740471065044403
0.3380194902420044
0.3969762623310089
0.4496040642261505
0.4946843385696411
0.5311866402626038
0.5583407878875732
0.5756838917732239
0.5830765962600708
0.5806950330734253
0.5690078139305115
0.475667268037796
0.45063701272010803
0.4172428250312805
0.377575546503067
0.333699107170105
0.2873658537864685
0.23982995748519897
0.1917942464351654
0.14347058534622192
0.09470649808645248
0.0451669916510582
-0.0054923370480537415
-0.05747143179178238
-0.11070097237825394
-0.16476431488990784
-0.21886757016181946
-0.2718610465526581
-0.32231584191322327
-0.3686353266239166
-0.4092015027999878
-0.4425223171710968
-0.4673669636249542
-0.4828830063343048
-0.48865798115730286
-0.48474833369255066
-0.4716469347476959
-0.4502147138118744
-0.42155763506889343
-0.38689592480659485
-0.34741446375846863
-0.3041437566280365
-0.257883757352829
-0.2091841995716095
-0.15837016701698303
-0.10562225431203842
-0.05107177048921585
0.005098722875118256
0.06255992501974106
0.1207653060555458
0.17890602350234985
0.23589324951171875
0.29037997126579285
0.3408137261867523
0.3855384290218353
0.4229359030723572
0.45159628987312317
0.4705093204975128
0.47921332716941833
0.47788205742836
0.46728047728538513
0.4486176073551178
0.4233017861843109
0.3926771283149719
0.3578217625617981
0.31944236159324646
0.2778971791267395
0.23329830169677734
0.18565326929092407
0.13500171899795532
0.0815194621682167
0.025576509535312653
-0.032233573496341705
-0.09110119193792343
-0.15001624822616577
-0.20780792832374573
-0.26319044828414917
-0.3148249089717865
-0.36139270663261414
-0.40167200565338135
-0.4346209168434143
-0.4594404995441437
-0.4756228029727936
-0.4829612076282501
-0.48153409361839294
-0.47166791558265686
-0.4538799226284027
-0.42883798480033875
-0.39730367064476013
-0.3600991666316986
-0.31806236505508423
-0.2720161974430084
-0.22273656725883484
-0.1709180772304535
-0.11717156320810318
-0.06201789528131485
-0.005919046700000763
0.05067863315343857
0.10728367418050766
0.16329973936080933
0.21797513961791992
0.27038294076919556
0.31943634152412415
0.3639470636844635
0.4027099609375
0.43460598587989807
0.4587089419364929
0.4743563234806061
0.4812087118625641
0.4792655408382416
0.46886637806892395
0.3489269018173218
0.3260115385055542
0.2982219159603119
0.267473429441452
0.23536524176597595
0.20299282670021057
0.17089149355888367
0.13908758759498596
0.10722770541906357
0.07473500818014145
0.04097452014684677
0.005401603877544403
-0.032312847673892975
-0.07219067960977554
-0.11388508230447769
-0.15665659308433533
-0.19940048456192017
-0.24071753025054932
-0.2790301740169525
-0.31273382902145386
-0.3403596580028534
-0.3607335090637207
-0.3730901777744293
-0.3771602213382721
-0.37315866351127625
-0.3617416024208069
-0.3438864052295685
-0.32073765993118286
-0.2934422194957733
-0.26300427317619324
-0.23018410801887512
-0.19546249508857727
-0.15905776619911194
-0.12100289016962051
-0.08123887330293655
-0.039728038012981415
0.003448896110057831
0.048009224236011505
0.09341638535261154
0.13885954022407532
0.1832614243030548
0.2253289818763733
0.2636321485042572
0.29673197865486145
0.323334276676178
0.3424586355686188
0.35359910130500793
0.35682162642478943
0.35275784134864807
0.3424783945083618
0.3272682726383209
0.3083525598049164
0.2866751253604889
0.2627657353878021
0.2367420196533203
0.208410382270813
0.17743238806724548
0.1434861719608307
0.10640659183263779
0.0662594810128212
0.02338365465402603
-0.021619029343128204
-0.06791534274816513
-0.11448708921670914
-0.16018885374069214
-0.2038150131702423
-0.24416840076446533
-0.28013476729393005
-0.3107488453388214
-0.3352557122707367
-0.35313931107521057
-0.3641354739665985
-0.36821699142456055
-0.36555883288383484
-0.3565051555633545
-0.3415297865867615
-0.3212069272994995
-0.29618868231773376
-0.26717495918273926
-0.23488059639930725
-0.19999772310256958
-0.16315189003944397
-0.12487296015024185
-0.08556932955980301
-0.045530252158641815
-0.004946120083332062
0.036039046943187714
0.07727063447237015
0.1185016855597496
0.1593341827392578
0.19916966557502747
0.2371981143951416
0.2724286913871765
0.3037622570991516
0.3300904929637909
0.350409597158432
0.3639221489429474
0.37012413144111633
0.36885198950767517
0.3603016436100006
0.21692818403244019
0.19802838563919067
0.17767885327339172
0.1573498547077179
0.13799643516540527
0.1200084313750267
0.10325928777456284
0.08723463863134384
0.07117929309606552
0.05425377935171127
0.03566475957632065
0.014777831733226776
-0.008791454136371613
-0.03511104732751846
-0.06388703733682632
-0.09445307403802872
-0.12579047679901123
-0.15660515427589417
-0.18543744087219238
-0.21081164479255676
-0.23141151666641235
-0.24623242020606995
-0.2547081708908081
-0.25676488876342773
-0.25280657410621643
-0.24361535906791687
-0.23020067811012268
-0.21362799406051636
-0.19484266638755798
-0.17455145716667175
-0.1531619131565094
-0.1307908594608307
-0.10732657462358475
-0.08253056555986404
-0.056154049932956696
-0.028040684759616852
0.0017773732542991638
0.03302008658647537
0.06512685865163803
0.09726472944021225
0.12836560606956482
0.15720826387405396
0.1825331449508667
0.20319050550460815
0.2183053195476532
0.2274305522441864
0.23064807057380676
0.2285786271095276
0.22228118777275085
0.2130241096019745
0.2020239531993866
0.1901927888393402
0.17797702550888062
0.1653364896774292
0.15183186531066895
0.13679391145706177
0.11951529234647751
0.09941678494215012
0.07617201656103134
0.0497652068734169
0.020504184067249298
-0.011013977229595184
-0.043954767286777496
-0.07731927186250687
-0.11002127081155777
-0.1409684121608734
-0.1691451370716095
-0.19368240237236023
-0.21391847729682922
-0.22942575812339783
-0.24000993371009827
-0.24568089842796326
-0.24660620093345642
-0.24305561184883118
-0.23536691069602966
-0.22392138838768005
-0.20914867520332336
-0.19152337312698364
-0.17155861854553223
-0.14978989958763123
-0.12673336267471313
-0.1028413251042366
-0.0784691646695137
-0.05383869260549545
-0.029041804373264313
-0.004055090248584747
0.021220318973064423
0.04689129441976547
0.07300247997045517
0.09946330636739731
0.12598979473114014
0.15206965804100037
0.17697051167488098
0.19978439807891846
0.21951761841773987
0.23519077897071838
0.2459656000137329
0.2512357234954834
0.25070902705192566
0.24444353580474854
0.0833013579249382
0.07004173845052719
0.05842312425374985
0.049300335347652435
0.042936019599437714