# vtk DataFile Version 3.0
2D PINN Solution
ASCII
DATASET STRUCTURED_GRID
DIMENSIONS 100 100 1
POINTS 10000 float
-1.0 -1.0 0.0
-0.9797979797979798 -1.0 0.0
-0.9595959595959596 -1.0 0.0
-0.9393939393939394 -1.0 0.0
-0.9191919191919192 -1.0 0.0
-0.898989898989899 -1.0 0.0
-0.8787878787878788 -1.0 0.0
-0.8585858585858586 -1.0 0.0
-0.8383838383838383 -1.0 0.0
-0.8181818181818181 -1.0 0.0
-0.797979797979798 -1.0 0.0
-0.7777777777777778 -1.0 0.0
-0.7575757575757576 -1.0 0.0
-0.7373737373737373 -1.0 0.0
-0.7171717171717171 -1.0 0.0
-0.696969696969697 -1.0 0.0
-0.6767676767676767 -1.0 0.0
-0.6565656565656566 -1.0 0.0
-0.6363636363636364 -1.0 0.0
-0.6161616161616161 -1.0 0.0
-0.5959595959595959 -1.0 0.0
-0.5757575757575757 -1.0 0.0
-0.5555555555555556 -1.0 0.0
-0.5353535353535352 -1.0 0.0
-0.5151515151515151 -1.0 0.0
-0.4949494949494949 -1.0 0.0
-0.4747474747474747 -1.0 0.0
-0.4545454545454545 -1.0 0.0
-0.43434343434343425 -1.0 0.0
-0.41414141414141414 -1.0 0.0
-0.3939393939393939 -1.0 0.0
-0.3737373737373737 -1.0 0.0
-0.3535353535353535 -1.0 0.0
-0.33333333333333326 -1.0 0.0
-0.31313131313131304 -1.0 0.0
-0.2929292929292928 -1.0 0.0
-0.2727272727272727 -1.0 0.0
-0.2525252525252525 -1.0 0.0
-0.23232323232323226 -1.0 0.0
-0.21212121212121204 -1.0 0.0
-0.19191919191919182 -1.0 0.0
-0.1717171717171716 -1.0 0.0
-0.1515151515151515 -1.0 0.0
-0.13131313131313127 -1.0 0.0
-0.11111111111111105 -1.0 0.0
-0.09090909090909083 -1.0 0.0
-0.07070707070707061 -1.0 0.0
-0.050505050505050386 -1.0 0.0
-0.030303030303030276 -1.0 0.0
-0.010101010101010055 -1.0 0.0
0.010101010101010166 -1.0 0.0
0.030303030303030498 -1.0 0.0
0.05050505050505061 -1.0 0.0
0.07070707070707072 -1.0 0.0
0.09090909090909105 -1.0 0.0
0.11111111111111116 -1.0 0.0
0.1313131313131315 -1.0 0.0
0.1515151515151516 -1.0 0.0
0.1717171717171717 -1.0 0.0
0.19191919191919204 -1.0 0.0
0.21212121212121215 -1.0 0.0
0.2323232323232325 -1.0 0.0
0.2525252525252526 -1.0 0.0
0.27272727272727293 -1.0 0.0
0.29292929292929304 -1.0 0.0
0.31313131313131315 -1.0 0.0
0.3333333333333335 -1.0 0.0
0.3535353535353536 -1.0 0.0
0.3737373737373739 -1.0 0.0
0.39393939393939403 -1.0 0.0
0.41414141414141437 -1.0 0.0
0.4343434343434345 -1.0 0.0
0.4545454545454546 -1.0 0.0
0.4747474747474749 -1.0 0.0
0.49494949494949503 -1.0 0.0
0.5151515151515154 -1.0 0.0
0.5353535353535355 -1.0 0.0
0.5555555555555556 -1.0 0.0
0.5757575757575759 -1.0 0.0
0.595959595959596 -1.0 0.0
0.6161616161616164 -1.0 0.0
0.6363636363636365 -1.0 0.0
0.6565656565656568 -1.0 0.0
0.6767676767676769 -1.0 0.0
0.696969696969697 -1.0 0.0
0.7171717171717173 -1.0 0.0
0.7373737373737375 -1.0 0.0
0.7575757575757578 -1.0 0.0
0.7777777777777779 -1.0 0.0
0.7979797979797982 -1.0 0.0
0.8181818181818183 -1.0 0.0
0.8383838383838385 -1.0 0.0
0.8585858585858588 -1.0 0.0
0.8787878787878789 -1.0 0.0
0.8989898989898992 -1.0 0.0
0.9191919191919193 -1.0 0.0
0.9393939393939394 -1.0 0.0
0.9595959595959598 -1.0 0.0
0.9797979797979799 -1.0 0.0
1.0 -1.0 0.0
-1.0 -0.9797979797979798 0.0
-0.9797979797979798 -0.9797979797979798 0.0
-0.9595959595959596 -0.9797979797979798 0.0
-0.9393939393939394 -0.9797979797979798 0.0
-0.9191919191919192 -0.9797979797979798 0.0
-0.898989898989899 -0.9797979797979798 0.0
-0.8787878787878788 -0.9797979797979798 0.0
-0.8585858585858586 -0.9797979797979798 0.0
-0.8383838383838383 -0.9797979797979798 0.0
-0.8181818181818181 -0.9797979797979798 0.0
-0.797979797979798 -0.9797979797979798 0.0
-0.7777777777777778 -0.9797979797979798 0.0
-0.7575757575757576 -0.9797979797979798 0.0
-0.7373737373737373 -0.9797979797979798 0.0
-0.7171717171717171 -0.9797979797979798 0.0
-0.696969696969697 -0.9797979797979798 0.0
-0.6767676767676767 -0.9797979797979798 0.0
-0.6565656565656566 -0.9797979797979798 0.0
-0.6363636363636364 -0.9797979797979798 0.0
-0.6161616161616161 -0.9797979797979798 0.0
-0.5959595959595959 -0.9797979797979798 0.0
-0.5757575757575757 -0.9797979797979798 0.0
-0.5555555555555556 -0.9797979797979798 0.0
-0.5353535353535352 -0.9797979797979798 0.0
-0.5151515151515151 -0.9797979797979798 0.0
-0.4949494949494949 -0.9797979797979798 0.0
-0.4747474747474747 -0.9797979797979798 0.0
-0.4545454545454545 -0.9797979797979798 0.0
-0.43434343434343425 -0.9797979797979798 0.0
-0.41414141414141414 -0.9797979797979798 0.0
-0.3939393939393939 -0.9797979797979798 0.0
-0.3737373737373737 -0.9797979797979798 0.0
-0.3535353535353535 -0.9797979797979798 0.0
-0.33333333333333326 -0.9797979797979798 0.0
-0.31313131313131304 -0.9797979797979798 0.0
-0.2929292929292928 -0.9797979797979798 0.0
-0.2727272727272727 -0.9797979797979798 0.0
-0.2525252525252525 -0.9797979797979798 0.0
-0.23232323232323226 -0.9797979797979798 0.0
-0.21212121212121204 -0.9797979797979798 0.0
-0.19191919191919182 -0.9797979797979798 0.0
-0.1717171717171716 -0.9797979797979798 0.0
-0.1515151515151515 -0.9797979797979798 0.0
-0.13131313131313127 -0.9797979797979798 0.0
-0.11111111111111105 -0.9797979797979798 0.0
-0.09090909090909083 -0.9797979797979798 0.0
-0.07070707070707061 -0.9797979797979798 0.0
-0.050505050505050386 -0.9797979797979798 0.0
-0.030303030303030276 -0.9797979797979798 0.0
-0.010101010101010055 -0.9797979797979798 0.0
0.010101010101010166 -0.9797979797979798 0.0
0.030303030303030498 -0.9797979797979798 0.0
0.05050505050505061 -0.9797979797979798 0.0
0.07070707070707072 -0.9797979797979798 0.0
0.09090909090909105 -0.9797979797979798 0.0
0.11111111111111116 -0.9797979797979798 0.0
0.1313131313131315 -0.9797979797979798 0.0
0.1515151515151516 -0.9797979797979798 0.0
0.1717171717171717 -0.9797979797979798 0.0
0.19191919191919204 -0.9797979797979798 0.0
0.21212121212121215 -0.9797979797979798 0.0
0.2323232323232325 -0.9797979797979798 0.0
0.2525252525252526 -0.9797979797979798 0.0
0.27272727272727293 -0.9797979797979798 0.0
0.29292929292929304 -0.9797979797979798 0.0
0.31313131313131315 -0.9797979797979798 0.0
0.3333333333333335 -0.9797979797979798 0.0
0.3535353535353536 -0.9797979797979798 0.0
0.3737373737373739 -0.9797979797979798 0.0
0.39393939393939403 -0.9797979797979798 0.0
0.41414141414141437 -0.9797979797979798 0.0
0.4343434343434345 -0.9797979797979798 0.0
0.4545454545454546 -0.9797979797979798 0.0
0.4747474747474749 -0.9797979797979798 0.0
0.49494949494949503 -0.9797979797979798 0.0
0.5151515151515154 -0.9797979797979798 0.0
0.5353535353535355 -0.9797979797979798 0.0
0.5555555555555556 -0.9797979797979798 0.0
0.5757575757575759 -0.9797979797979798 0.0
0.595959595959596 -0.9797979797979798 0.0
0.6161616161616164 -0.9797979797979798 0.0
0.6363636363636365 -0.9797979797979798 0.0
0.6565656565656568 -0.9797979797979798 0.0
0.6767676767676769 -0.9797979797979798 0.0
0.696969696969697 -0.9797979797979798 0.0
0.7171717171717173 -0.9797979797979798 0.0
0.7373737373737375 -0.9797979797979798 0.0
0.7575757575757578 -0.9797979797979798 0.0
0.7777777777777779 -0.9797979797979798 0.0
0.7979797979797982 -0.9797979797979798 0.0
0.8181818181818183 -0.9797979797979798 0.0
0.8383838383838385 -0.9797979797979798 0.0
0.8585858585858588 -0.9797979797979798 0.0
0.8787878787878789 -0.9797979797979798 0.0
0.8989898989898992 -0.9797979797979798 0.0
0.9191919191919193 -0.9797979797979798 0.0
0.9393939393939394 -0.9797979797979798 0.0
0.9595959595959598 -0.9797979797979798 0.0
0.9797979797979799 -0.9797979797979798 0.0
1.0 -0.9797979797979798 0.0
-1.0 -0.9595959595959596 0.0
-0.9797979797979798 -0.9595959595959596 0.0
-0.9595959595959596 -0.9595959595959596 0.0
-0.9393939393939394 -0.9595959595959596 0.0
-0.9191919191919192 -0.9595959595959596 0.0
-0.898989898989899 -0.9595959595959596 0.0
-0.8787878787878788 -0.9595959595959596 0.0
-0.8585858585858586 -0.9595959595959596 0.0
-0.8383838383838383 -0.9595959595959596 0.0
-0.8181818181818181 -0.9595959595959596 0.0
-0.797979797979798 -0.9595959595959596 0.0
-0.7777777777777778 -0.9595959595959596 0.0
-0.7575757575757576 -0.9595959595959596 0.0
-0.7373737373737373 -0.9595959595959596 0.0
-0.7171717171717171 -0.9595959595959596 0.0
-0.696969696969697 -0.9595959595959596 0.0
-0.6767676767676767 -0.9595959595959596 0.0
-0.6565656565656566 -0.9595959595959596 0.0
-0.6363636363636364 -0.9595959595959596 0.0
-0.6161616161616161 -0.9595959595959596 0.0
-0.5959595959595959 -0.9595959595959596 0.0
-0.5757575757575757 -0.9595959595959596 0.0
-0.5555555555555556 -0.9595959595959596 0.0
-0.5353535353535352 -0.9595959595959596 0.0
-0.5151515151515151 -0.9595959595959596 0.0
-0.4949494949494949 -0.9595959595959596 0.0
-0.4747474747474747 -0.9595959595959596 0.0
-0.4545454545454545 -0.9595959595959596 0.0
-0.43434343434343425 -0.9595959595959596 0.0
-0.41414141414141414 -0.9595959595959596 0.0
-0.3939393939393939 -0.9595959595959596 0.0
-0.3737373737373737 -0.9595959595959596 0.0
-0.3535353535353535 -0.9595959595959596 0.0
-0.33333333333333326 -0.9595959595959596 0.0
-0.31313131313131304 -0.9595959595959596 0.0
-0.2929292929292928 -0.9595959595959596 0.0
-0.2727272727272727 -0.9595959595959596 0.0
-0.2525252525252525 -0.9595959595959596 0.0
-0.23232323232323226 -0.9595959595959596 0.0
-0.21212121212121204 -0.9595959595959596 0.0
-0.19191919191919182 -0.9595959595959596 0.0
-0.1717171717171716 -0.9595959595959596 0.0
-0.1515151515151515 -0.9595959595959596 0.0
-0.13131313131313127 -0.9595959595959596 0.0
-0.11111111111111105 -0.9595959595959596 0.0
-0.09090909090909083 -0.9595959595959596 0.0
-0.07070707070707061 -0.9595959595959596 0.0
-0.050505050505050386 -0.9595959595959596 0.0
-0.030303030303030276 -0.9595959595959596 0.0
-0.010101010101010055 -0.9595959595959596 0.0
0.010101010101010166 -0.9595959595959596 0.0
0.030303030303030498 -0.9595959595959596 0.0
0.05050505050505061 -0.9595959595959596 0.0
0.07070707070707072 -0.9595959595959596 0.0
0.09090909090909105 -0.9595959595959596 0.0
0.11111111111111116 -0.9595959595959596 0.0
0.1313131313131315 -0.9595959595959596 0.0
0.1515151515151516 -0.9595959595959596 0.0
0.1717171717171717 -0.9595959595959596 0.0
0.19191919191919204 -0.9595959595959596 0.0
0.21212121212121215 -0.9595959595959596 0.0
[...]
POINT_DATA 10000
SCALARS u float 1
LOOKUP_TABLE default
0.9844483733177185
0.9696508646011353
0.9406288862228394
0.8975415825843811
0.840573251247406
0.7699781060218811
0.686156690120697
0.5897791385650635
0.4819197654724121
0.3641699254512787
0.23868924379348755
0.10815387219190598
-0.02440444380044937
-0.1558329164981842
-0.28312331438064575
-0.4036380350589752
-0.5152451395988464
-0.6163676381111145
-0.7059363126754761
-0.7832979559898376
-0.8480926156044006
-0.9001356363296509
-0.9393091797828674
-0.9654741883277893
-0.9784112572669983
-0.9777905344963074
-0.9631854891777039
-0.9341313242912292
-0.890227735042572
-0.8312805891036987
-0.7574537992477417
-0.6694023013114929
-0.5683494806289673
-0.4560801088809967
-0.33484870195388794
-0.2072344720363617
-0.07597441226243973
0.0561823770403862
0.1865803301334381
0.3127303123474121
0.43235090374946594
0.5434087514877319
0.6441399455070496
0.7330840826034546
0.80909663438797
0.8713567852973938
0.9193439483642578
0.9528030753135681
0.9716996550559998
0.9761647582054138
0.9664461016654968
0.9428704380989075
0.9058147072792053
0.8556933999061584
0.7929629683494568
0.7181375622749329
0.6318249702453613
0.534777820110321
0.42795735597610474
0.31260955333709717
0.19032666087150574
0.06308751553297043
-0.06675837188959122
-0.1965724527835846
-0.32356587052345276
-0.44498810172080994
-0.5583057999610901
-0.6613410115242004
-0.7523496150970459
-0.83003169298172
-0.893488883972168
-0.9421597123146057
-0.9757409691810608
-0.9941146969795227
-0.9972850680351257
-0.9853439927101135
-0.9584479928016663
-0.916827380657196
-0.8608171939849854
-0.7909072637557983
-0.7078139781951904
-0.612544596195221
-0.5064556002616882
-0.3912905156612396
-0.2691600024700165
-0.14248374104499817
-0.013876713812351227
0.11399363726377487
0.2385704517364502
0.357542484998703
0.46896037459373474
0.5712841749191284
0.6634084582328796
0.7446193695068359
0.8145472407341003
0.8730942606925964
0.9203727841377258
0.9566396474838257
0.9822568297386169
0.9976685047149658
0.9704003930091858
0.9572041034698486
0.9294283986091614
0.8871047496795654
0.8303894400596619
0.7596239447593689
0.6754116415977478
0.5787196755409241
0.47096356749534607
0.35404524207115173
0.23032447695732117
0.10250308364629745
-0.02655906230211258
-0.15404367446899414
-0.27736392617225647
-0.39429154992103577
-0.5030166506767273
-0.6021477580070496
-0.6906624436378479
-0.7678317427635193
-0.8331318497657776
-0.8861599564552307
-0.9265584349632263
-0.9539546370506287
-0.967924177646637
-0.9679829478263855
-0.9536165595054626
-0.9243584275245667
-0.8799059391021729
-0.8202561736106873
-0.7458426356315613
-0.6576164364814758
-0.557056725025177
-0.44609764218330383
-0.3269951343536377
-0.20218119025230408
-0.07413557916879654
0.05469267815351486
0.1819261908531189
0.305279016494751
0.4225839078426361
0.5318273901939392
0.6312012672424316
0.7191590666770935
0.7944629788398743
0.8562104105949402
0.9038296341896057
0.9370487928390503
0.955842912197113
0.9603764414787292
0.9509379267692566
0.9278934597969055
0.8916478753089905
0.8426311612129211
0.7812969088554382
0.7081390023231506
0.6237287521362305
0.5287613272666931
0.4241204261779785
0.31095099449157715
0.19073107838630676
0.06532274931669235
-0.06300988048315048
-0.19165751338005066
-0.3177788555622101
-0.43849411606788635
-0.5510921478271484
-0.6532243490219116
-0.743028461933136
-0.8191737532615662
-0.8808242678642273
-0.9275516271591187
-0.9592323899269104
-0.9759388566017151
-0.9778611063957214
-0.9652385115623474
-0.9383376240730286
-0.8974404335021973
-0.8428775668144226
-0.7750736474990845
-0.694614052772522
-0.6023284196853638
-0.49936118721961975
-0.3872276246547699
-0.2678343951702118
-0.14344418048858643
-0.01658690720796585
0.11006941646337509
0.23388031125068665
0.352390319108963
0.46345943212509155
0.5653494000434875
0.6567643880844116
0.7368330359458923
0.8050673604011536
0.8612927794456482
0.9055848121643066
0.9382095336914062
0.9595758318901062
0.9702074527740479
0.9426546692848206
0.9309552907943726
0.9043640494346619
0.8628384470939636
0.806585967540741
0.7361375689506531
0.652407705783844
0.5567455291748047
0.45093849301338196
0.33715638518333435
0.21783611178398132
0.09552415460348129
-0.027291186153888702
-0.14829841256141663
-0.26545003056526184
-0.37697842717170715
-0.4813908636569977
-0.5774325132369995
-0.6640565395355225
-0.7403773069381714
-0.8056319355964661
-0.8591387867927551
-0.9002595543861389
-0.9283710718154907
-0.9428570866584778
-0.9431214928627014
-0.9286422729492188
-0.8990540504455566
-0.8542637825012207
-0.7945635914802551
-0.720713198184967
-0.6339550018310547
-0.5359495282173157
-0.42864900827407837
-0.3141571879386902
-0.19461849331855774
-0.07215491682291031
0.051133185625076294
0.1731623411178589
0.2918543219566345
0.40515056252479553
0.5110672116279602
0.607765257358551
0.6936302185058594
0.7673414349555969
0.8279172778129578
0.8747199773788452
0.9074331521987915
0.9260135293006897
0.9306275844573975
0.9215803742408752
0.8992685675621033
0.8641281723976135
0.8166165351867676
0.7572066783905029
0.6864017844200134
0.604771077632904
0.5129905939102173
0.41190409660339355
0.3025893568992615
0.18642348051071167
0.06513922661542892
-0.05915118008852005
-0.18397781252861023
-0.3066011071205139
-0.42417314648628235
-0.5339422821998596
-0.6334661841392517
-0.7207810282707214
-0.7944883704185486
-0.8537481427192688
-0.8981961607933044
-0.9278221726417542
-0.9428488612174988
-0.9436144232749939
-0.9305022954940796
-0.9038891196250916
-0.8641344904899597
-0.8115963339805603
-0.7466747164726257
-0.669871985912323
-0.581874668598175
-0.4836306869983673
-0.37642234563827515
-0.26190558075904846
-0.1421070396900177
-0.019371457397937775
0.10374949127435684
0.22464346885681152
0.3407938778400421
0.4499315917491913
0.5501432418823242
0.639935314655304
0.7182453274726868
0.7844191193580627
0.8381603956222534
0.8794692754745483
0.9085842370986938
0.9259383082389832
0.9321295022964478
0.9012707471847534
0.8908436298370361
0.8653238415718079
0.8246610760688782
0.7692043781280518
0.6997655630111694
0.6176450252532959
0.5246018171310425
0.4227600395679474
0.31445205211639404
0.2020348310470581
0.08773230761289597
-0.02647808939218521
-0.13888582587242126
-0.24801865220069885
-0.3525732457637787
-0.45134297013282776
-0.5431749224662781
-0.6269484162330627
-0.7015785574913025
-0.7660225033760071
-0.8192874789237976
-0.8604370951652527
-0.8886021375656128
-0.9030006527900696
-0.9029881954193115
-0.8881158828735352
-0.8582237362861633
-0.8135247826576233
-0.7546728849411011
-0.6827630996704102
-0.5992653965950012
-0.5059016346931458
-0.40449783205986023
-0.2968734800815582
-0.18479397892951965
-0.06999168545007706
0.04579063504934311
0.16074997186660767
0.2730039358139038
0.3806169033050537
0.4816586971282959
0.5742980241775513
0.6568918228149414
0.7280658483505249
0.7867691516876221
0.8322915434837341
0.8642470240592957
0.8825368881225586
0.8872888684272766
0.8787988424301147
0.8574652075767517
0.8237530589103699
0.7781537771224976
0.7211832404136658
0.6533858180046082
0.5753607749938965
0.48780280351638794
0.39155158400535583
0.2876458764076233
0.17738127708435059
0.06235427409410477
-0.055508874356746674
-0.173961341381073
-0.2904936969280243
-0.4024489223957062
-0.5071913599967957
-0.6023065447807312
-0.6857825517654419
-0.7561416625976562
-0.8124781250953674
-0.8544036746025085
-0.8819449543952942
-0.8954004645347595
-0.895219087600708
-0.8818973898887634
-0.8559239506721497
-0.8177464604377747
-0.7677798271179199
-0.7064375281333923
-0.634184718132019
-0.5516082048416138
-0.4594936668872833
-0.3588993549346924
-0.2512156665325165
-0.13818058371543884
-0.02186492830514908
0.09540306776762009
0.2111549973487854
0.322924941778183
0.42839470505714417
0.525520384311676
0.612622857093811
0.6884341239929199
0.752103328704834
0.8031612038612366
0.8414931297302246
0.8672756552696228
0.8809422850608826
0.8831478953361511
0.8463139533996582
0.8368592858314514
0.8123118281364441
0.7726979851722717
0.7185864448547363
0.65113365650177
0.5720392465591431
0.48342904448509216
0.387652188539505
0.2870493531227112
0.1837460696697235
0.07952415198087692
-0.02420855313539505
-0.12634655833244324
-0.22596409916877747
-0.3221767544746399
-0.4140331745147705
-0.5004584789276123
-0.5802538990974426
-0.6521274447441101
-0.7147569060325623
-0.766839325428009
-0.8071553111076355
-0.8346112370491028
-0.8483136296272278
-0.8476288914680481
-0.8322671055793762
-0.8023505806922913
-0.7584561109542847
-0.7016041874885559
-0.6331696510314941
-0.5547433495521545
-0.46796873211860657
-0.3744247853755951
-0.2755697965621948
-0.1727719008922577
-0.06738526374101639
0.039170630276203156
0.14534857869148254
0.2494627833366394
0.34972548484802246
0.4443090260028839
0.5314435958862305
0.6095108985900879
0.6771247386932373
0.7331878542900085
0.7769160866737366
0.8078368902206421
0.8257622122764587
0.8307440876960754
0.8230227828025818
0.8029777407646179
0.7710787653923035
0.7278563380241394
0.6738821268081665
0.6097645163536072
0.5361681580543518
0.4538376033306122
0.36363545060157776
0.26658475399017334
0.16391053795814514
0.057073839008808136
-0.05221014469861984
-0.16196832060813904
-0.2700088322162628
-0.3739899694919586
-0.47153905034065247
-0.5604050755500793
-0.6386213302612305
-0.7046613097190857
-0.7575142979621887
-0.796698272228241
-0.8221806883811951
-0.8342589735984802
-0.8334270715713501
-0.8202620148658752
-0.7953447699546814
-0.7592151761054993
-0.7123662829399109
-0.6552560329437256
-0.5883520841598511
-0.5121848583221436
-0.4274168312549591
-0.33490994572639465
-0.23578938841819763
-0.13148337602615356
-0.023728065192699432
0.08546120673418045
0.19386664032936096
0.2991792559623718
0.3991294205188751
0.4916122257709503
0.57480388879776
0.6472371220588684
0.7078408598899841
0.7559525370597839
0.7912971377372742
0.813955545425415
0.8243341445922852
0.8231254816055298
0.777912437915802
0.7691158652305603
0.7455357909202576
0.7073563933372498
0.6554257273674011
0.5912476181983948
0.5168665051460266
0.43464595079421997
0.3469923734664917
0.2560880482196808
0.16370537877082825
0.07113730162382126
-0.020757026970386505
-0.11140195280313492
-0.20033273100852966
-0.28701692819595337
-0.37072089314460754
-0.4504501521587372
-0.524951159954071
-0.5927674174308777
-0.652336597442627
-0.7020921111106873
-0.740569531917572
-0.7665155529975891
-0.7789786458015442
-0.7774099707603455
-0.761734664440155
-0.7323943972587585
-0.6903172731399536
-0.6368234157562256
-0.5734533667564392
-0.5017814636230469
-0.4232639670372009
-0.3391616642475128
-0.2505654990673065
-0.1584838628768921
-0.06394987553358078
0.03189065307378769
0.12772777676582336
0.2220858335494995
0.31336021423339844
0.3998887240886688
0.4800328314304352
0.5522571802139282
0.615211546421051
0.6677820682525635
0.7091228365898132
0.738667368888855
0.7561163306236267
0.7614125609397888
0.7547066807746887
0.7363191246986389
0.7067040801048279
0.666412889957428
0.6160749793052673
0.5563783049583435
0.4880736470222473
0.41197770833969116
0.3289964199066162
0.24015074968338013
0.1465986967086792
0.04965824633836746
-0.04917622357606888
-0.14823773503303528
-0.24569633603096008
-0.3396041691303253
-0.4279557168483734
-0.5087835192680359
-0.5802846550941467
-0.6409487128257751
-0.6896780133247375
-0.7258467674255371
-0.7492870092391968
-0.7602088451385498
-0.7590774893760681
-0.746497392654419
-0.7231143712997437
-0.68955397605896
-0.6463907361030579
-0.5941498279571533
-0.5333322286605835
-0.4644488990306854
-0.388077050447464
-0.30491510033607483
-0.2158443033695221
-0.12197668105363846
-0.02468843013048172
0.07437746971845627
0.1733388900756836
0.27014508843421936
0.3626733124256134
0.44884923100471497
0.5267664790153503
0.5947920680046082
0.6516467928886414
0.6964541077613831
0.7287583947181702
0.7485108971595764
0.7560547590255737
0.7520924806594849
0.6963507533073425
0.6879454851150513
0.6654921174049377
0.629392683506012
0.5807830095291138
0.5214561223983765
0.4536575973033905
0.37980082631111145
0.30215519666671753
0.22259891033172607
0.14248746633529663
0.06264623254537582
-0.016518868505954742
-0.09484300762414932
-0.17220255732536316
-0.24833104014396667
-0.3226793706417084
-0.3943454325199127
-0.46207383275032043
-0.5243200659751892
-0.5793684124946594
-0.6254737377166748
-0.6610207557678223
-0.6846692562103271
-0.6954895853996277
-0.6930713057518005
-0.6775781512260437
-0.6497365832328796
-0.61073899269104
-0.5620693564414978
-0.5052818059921265
-0.44181039929389954
-0.3728516101837158
-0.2993567883968353
-0.22210392355918884
-0.14181998372077942
-0.05928898602724075
0.024570874869823456
0.1086711660027504
0.19176840782165527
0.27249422669410706
0.3494109809398651
0.4210789203643799
0.48611214756965637
0.5432475209236145
0.5913918614387512
0.6296585202217102
0.6573918461799622
0.6741755604743958
0.6798238158226013
0.6743707656860352
0.6580484509468079
0.6312612891197205
0.5945596694946289
0.5486119985580444
0.4941812753677368
0.4321039319038391
0.36328014731407166
0.2886679470539093
0.20928648114204407
0.1262248456478119
0.04065535217523575
-0.046164266765117645
-0.13287928700447083
-0.21804407238960266
-0.30013135075569153
-0.3775579631328583
-0.44872477650642395
-0.512091338634491
-0.566264271736145
-0.6101171374320984
-0.642887532711029
-0.6642252802848816
-0.6741774678230286
-0.6731051802635193
-0.6615758538246155
-0.6402568817138672
-0.6098324656486511
-0.5709570050239563
-0.524229884147644
-0.4702003300189972
-0.4093899428844452
-0.34231847524642944
-0.2695576250553131
-0.19176962971687317
-0.1097697988152504
-0.024570681154727936
0.06258273869752884
0.15020111203193665
0.23656663298606873
0.3198027014732361
0.39795824885368347
0.469129741191864
0.5315839648246765
0.5838698744773865
0.6249077320098877
0.6540465950965881
0.6710876226425171
0.6762810945510864
0.670296847820282
0.6021646857261658
0.5940043330192566
0.5730529427528381
0.53995281457901
0.4960741698741913
0.44335874915122986
0.3840544521808624
0.32040485739707947
0.25436580181121826
0.18741223216056824
0.12047707289457321
0.054000936448574066
-0.01193545013666153
-0.07743019610643387
-0.14257153868675232
-0.20726773142814636
-0.27111485600471497
-0.33332163095474243
-0.3926961123943329
-0.44771215319633484
-0.496625691652298
-0.537649929523468
-0.569138765335083
-0.5897773504257202
-0.5987353920936584
-0.5957691073417664
-0.581244707107544
-0.556074321269989
-0.5215550661087036
-0.47915342450141907
-0.43028557300567627
-0.37615540623664856
-0.31769460439682007
-0.2555984556674957
-0.1904298961162567
-0.1227269098162651
-0.05309786647558212
0.01772797852754593
0.08888561278581619
0.15938445925712585
0.22813665866851807
0.29398858547210693
0.35575684905052185
0.4122679829597473
0.46239784359931946
0.5051165223121643
0.5395293831825256
0.5649119019508362
0.5807385444641113
0.5866946578025818
0.5826849937438965
0.5688328146934509
0.545464038848877
0.513094425201416
0.47239968180656433
0.4241882860660553
0.36936521530151367
0.3088974058628082
0.2437852919101715
0.17504078149795532
0.10367908328771591
0.030715249478816986
-0.042828045785427094
-0.11591093987226486
-0.18746402859687805
-0.25637802481651306
-0.3215012550354004
-0.3816412687301636
-0.43558695912361145
-0.48215869069099426
-0.5202921032905579
-0.5491438508033752
-0.5681888461112976
-0.5772696733474731
-0.5765741467475891
-0.5665608644485474
-0.5478602051734924
-0.5211789608001709
-0.48722580075263977
-0.4466685950756073
-0.4001105725765228
-0.3480943739414215
-0.2911083996295929
-0.22961735725402832
-0.16410353779792786
-0.09511006623506546
-0.023306794464588165
0.050455592572689056
0.1250995695590973
0.1992965042591095
0.2714860737323761
0.3399370014667511
0.40284648537635803
0.4584655165672302
0.5052385926246643
0.5419217944145203
0.5676830410957336
0.5821576714515686
0.5854698419570923
0.5782232284545898
0.49625855684280396
0.48837217688560486
0.46952715516090393
0.4405769407749176
0.4029991030693054
0.35868704319000244
0.3096645176410675
0.2578018307685852
0.20460689067840576
0.15111279487609863
0.09787952154874802
0.045069240033626556
-0.007420726120471954
-0.059808291494846344
-0.11226768046617508
-0.16479429602622986
-0.21708860993385315
-0.2684797942638397
-0.3179156184196472
-0.36400046944618225
-0.40512099862098694
-0.4396144449710846
-0.46596482396125793
-0.4830073416233063
-0.4900762736797333
-0.4870850145816803
-0.47451236844062805
-0.4532916247844696
-0.42462676763534546
-0.3897859752178192
-0.34992215037345886
-0.305969774723053
-0.25863444805145264
-0.20844605565071106
-0.1558493971824646
-0.10128556936979294
-0.045242540538311005
0.011712171137332916
0.0689370259642601
0.12571567296981812
0.1812746822834015
0.2347809076309204
0.28535881638526917
0.33209219574928284
0.3740493953227997
0.4103136360645294
0.44002434611320496
0.46242114901542664
0.4768925905227661
0.48301059007644653
0.4805552363395691
0.4695304334163666
0.4501655399799347
0.4229073226451874
0.3883998692035675
0.34744855761528015
0.3009803891181946
0.24999111890792847
0.19549274444580078
0.13847067952156067
0.0798545703291893
0.020501114428043365
-0.03879890590906143
-0.09730634838342667
-0.15430715680122375
-0.2090858519077301
-0.2609011232852936
-0.3089621067047119
-0.3524186909198761
-0.3903715908527374
-0.4219138026237488
-0.4462142884731293
-0.462631493806839
-0.4708060324192047
-0.470709890127182
-0.4626323878765106
-0.4470982849597931
-0.4247814118862152
-0.3964063823223114
-0.3626849353313446
-0.3242659270763397
-0.281709760427475
-0.23548397421836853
-0.18596956133842468
-0.13349124789237976
-0.07835928350687027
-0.020935870707035065
0.038295842707157135
0.09866074472665787
0.15923553705215454
0.21883025765419006
0.2760111093521118
0.32917049527168274
0.3766508400440216
0.4168773889541626
0.44850918650627136
0.47057095170021057
0.48253658413887024
0.48438936471939087
0.47661808133125305
0.38000360131263733
0.3726196587085724
0.3566807210445404
0.33315151929855347
0.30344125628471375
0.26917415857315063
0.23193702101707458
0.19307464361190796
0.15357819199562073
0.11405148357152939
0.07475589960813522
0.03568955510854721
-0.0033081844449043274
-0.04245031625032425
-0.08189455419778824
-0.12164429575204849
-0.16146177053451538
-0.2008083164691925
-0.23882895708084106
-0.27438390254974365
-0.3061513602733612
-0.3327743411064148
-0.35304272174835205
-0.366062730550766
-0.37137630581855774
-0.3690046966075897
-0.3594000041484833
-0.3433288037776947
-0.32171010971069336
-0.29546621441841125
-0.2654121518135071
-0.23221763968467712
-0.19641968607902527
-0.1584690809249878
-0.11877665668725967
-0.07774784415960312
-0.03579392284154892
0.006667278707027435
0.04921437054872513
0.09141489118337631
0.1328190267086029
0.17294079065322876
0.2112322449684143
0.2470758557319641
0.27977561950683594
0.3085772395133972
0.3327053487300873
0.35141414403915405
0.3640439808368683
0.3700801730155945
0.3691936135292053
0.3612733483314514
0.3464418053627014
0.3250497281551361
0.29766544699668884
0.26503705978393555
0.22805026173591614
0.1876659095287323
0.14485883712768555
0.10055238753557205
0.05557038635015488
0.010613702237606049
-0.033746205270290375
-0.07704568654298782
-0.11889372020959854
-0.15893232822418213
-0.19679155945777893
-0.2320556640625
-0.2642297148704529
-0.2927241921424866
-0.31686440110206604
-0.33593085408210754
-0.34925714135169983
-0.35633817315101624
-0.356935977935791
-0.35112056136131287
-0.33925190567970276
-0.3219013512134552
-0.29975625872612
-0.2735312879085541
-0.24389204382896423
-0.21140727400779724
-0.17651665210723877
-0.1395302712917328
-0.10064027458429337
-0.059960462152957916
-0.017588414251804352
0.026315830647945404
0.07144822925329208
0.11727923899888992
0.16300931572914124
0.20755818486213684
0.24959972500801086
0.2876679003238678
0.3202761709690094
0.34607669711112976
0.36400774121284485
0.3734176754951477
0.3741362988948822
0.36651143431663513
0.25530630350112915
0.24883750081062317
0.23670005798339844
0.21982505917549133
0.19935688376426697
0.17644822597503662
0.15209245681762695
0.12702855467796326