# vtk DataFile Version 3.0
2D PINN Solution
ASCII
DATASET STRUCTURED_GRID
DIMENSIONS 100 100 1
POINTS 10000 float
-1.0 -1.0 0.0
-0.9797979797979798 -1.0 0.0
-0.9595959595959596 -1.0 0.0
-0.9393939393939394 -1.0 0.0
-0.9191919191919192 -1.0 0.0
-0.898989898989899 -1.0 0.0
-0.8787878787878788 -1.0 0.0
-0.8585858585858586 -1.0 0.0
-0.8383838383838383 -1.0 0.0
-0.8181818181818181 -1.0 0.0
-0.797979797979798 -1.0 0.0
-0.7777777777777778 -1.0 0.0
-0.7575757575757576 -1.0 0.0
-0.7373737373737373 -1.0 0.0
-0.7171717171717171 -1.0 0.0
-0.696969696969697 -1.0 0.0
-0.6767676767676767 -1.0 0.0
-0.6565656565656566 -1.0 0.0
-0.6363636363636364 -1.0 0.0
-0.6161616161616161 -1.0 0.0
-0.5959595959595959 -1.0 0.0
-0.5757575757575757 -1.0 0.0
-0.5555555555555556 -1.0 0.0
-0.5353535353535352 -1.0 0.0
-0.5151515151515151 -1.0 0.0
-0.4949494949494949 -1.0 0.0
-0.4747474747474747 -1.0 0.0
-0.4545454545454545 -1.0 0.0
-0.43434343434343425 -1.0 0.0
-0.41414141414141414 -1.0 0.0
-0.3939393939393939 -1.0 0.0
-0.3737373737373737 -1.0 0.0
-0.3535353535353535 -1.0 0.0
-0.33333333333333326 -1.0 0.0
-0.31313131313131304 -1.0 0.0
-0.2929292929292928 -1.0 0.0
-0.2727272727272727 -1.0 0.0
-0.2525252525252525 -1.0 0.0
-0.23232323232323226 -1.0 0.0
-0.21212121212121204 -1.0 0.0
-0.19191919191919182 -1.0 0.0
-0.1717171717171716 -1.0 0.0
-0.1515151515151515 -1.0 0.0
-0.13131313131313127 -1.0 0.0
-0.11111111111111105 -1.0 0.0
-0.09090909090909083 -1.0 0.0
-0.07070707070707061 -1.0 0.0
-0.050505050505050386 -1.0 0.0
-0.030303030303030276 -1.0 0.0
-0.010101010101010055 -1.0 0.0
0.010101010101010166 -1.0 0.0
0.030303030303030498 -1.0 0.0
0.05050505050505061 -1.0 0.0
0.07070707070707072 -1.0 0.0
0.09090909090909105 -1.0 0.0
0.11111111111111116 -1.0 0.0
0.1313131313131315 -1.0 0.0
0.1515151515151516 -1.0 0.0
0.1717171717171717 -1.0 0.0
0.19191919191919204 -1.0 0.0
0.21212121212121215 -1.0 0.0
0.2323232323232325 -1.0 0.0
0.2525252525252526 -1.0 0.0
0.27272727272727293 -1.0 0.0
0.29292929292929304 -1.0 0.0
0.31313131313131315 -1.0 0.0
0.3333333333333335 -1.0 0.0
0.3535353535353536 -1.0 0.0
0.3737373737373739 -1.0 0.0
0.39393939393939403 -1.0 0.0
0.41414141414141437 -1.0 0.0
0.4343434343434345 -1.0 0.0
0.4545454545454546 -1.0 0.0
0.4747474747474749 -1.0 0.0
0.49494949494949503 -1.0 0.0
0.5151515151515154 -1.0 0.0
0.5353535353535355 -1.0 0.0
0.5555555555555556 -1.0 0.0
0.5757575757575759 -1.0 0.0
0.595959595959596 -1.0 0.0
0.6161616161616164 -1.0 0.0
0.6363636363636365 -1.0 0.0
0.6565656565656568 -1.0 0.0
0.6767676767676769 -1.0 0.0
0.696969696969697 -1.0 0.0
0.7171717171717173 -1.0 0.0
0.7373737373737375 -1.0 0.0
0.7575757575757578 -1.0 0.0
0.7777777777777779 -1.0 0.0
0.7979797979797982 -1.0 0.0
0.8181818181818183 -1.0 0.0
0.8383838383838385 -1.0 0.0
0.8585858585858588 -1.0 0.0
0.8787878787878789 -1.0 0.0
0.8989898989898992 -1.0 0.0
0.9191919191919193 -1.0 0.0
0.9393939393939394 -1.0 0.0
0.9595959595959598 -1.0 0.0
0.9797979797979799 -1.0 0.0
1.0 -1.0 0.0
-1.0 -0.9797979797979798 0.0
-0.9797979797979798 -0.9797979797979798 0.0
-0.9595959595959596 -0.9797979797979798 0.0
-0.9393939393939394 -0.9797979797979798 0.0
-0.9191919191919192 -0.9797979797979798 0.0
-0.898989898989899 -0.9797979797979798 0.0
-0.8787878787878788 -0.9797979797979798 0.0
-0.8585858585858586 -0.9797979797979798 0.0
-0.8383838383838383 -0.9797979797979798 0.0
-0.8181818181818181 -0.9797979797979798 0.0
-0.797979797979798 -0.9797979797979798 0.0
-0.7777777777777778 -0.9797979797979798 0.0
-0.7575757575757576 -0.9797979797979798 0.0
-0.7373737373737373 -0.9797979797979798 0.0
-0.7171717171717171 -0.9797979797979798 0.0
-0.696969696969697 -0.9797979797979798 0.0
-0.6767676767676767 -0.9797979797979798 0.0
-0.6565656565656566 -0.9797979797979798 0.0
-0.6363636363636364 -0.9797979797979798 0.0
-0.6161616161616161 -0.9797979797979798 0.0
-0.5959595959595959 -0.9797979797979798 0.0
-0.5757575757575757 -0.9797979797979798 0.0
-0.5555555555555556 -0.9797979797979798 0.0
-0.5353535353535352 -0.9797979797979798 0.0
-0.5151515151515151 -0.9797979797979798 0.0
-0.4949494949494949 -0.9797979797979798 0.0
-0.4747474747474747 -0.9797979797979798 0.0
-0.4545454545454545 -0.9797979797979798 0.0
-0.43434343434343425 -0.9797979797979798 0.0
-0.41414141414141414 -0.9797979797979798 0.0
-0.3939393939393939 -0.9797979797979798 0.0
-0.3737373737373737 -0.9797979797979798 0.0
-0.3535353535353535 -0.9797979797979798 0.0
-0.33333333333333326 -0.9797979797979798 0.0
-0.31313131313131304 -0.9797979797979798 0.0
-0.2929292929292928 -0.9797979797979798 0.0
-0.2727272727272727 -0.9797979797979798 0.0
-0.2525252525252525 -0.9797979797979798 0.0
-0.23232323232323226 -0.9797979797979798 0.0
-0.21212121212121204 -0.9797979797979798 0.0
-0.19191919191919182 -0.9797979797979798 0.0
-0.1717171717171716 -0.9797979797979798 0.0
-0.1515151515151515 -0.9797979797979798 0.0
-0.13131313131313127 -0.9797979797979798 0.0
-0.11111111111111105 -0.9797979797979798 0.0
-0.09090909090909083 -0.9797979797979798 0.0
-0.07070707070707061 -0.9797979797979798 0.0
-0.050505050505050386 -0.9797979797979798 0.0
-0.030303030303030276 -0.9797979797979798 0.0
-0.010101010101010055 -0.9797979797979798 0.0
0.010101010101010166 -0.9797979797979798 0.0
0.030303030303030498 -0.9797979797979798 0.0
0.05050505050505061 -0.9797979797979798 0.0
0.07070707070707072 -0.9797979797979798 0.0
0.09090909090909105 -0.9797979797979798 0.0
0.11111111111111116 -0.9797979797979798 0.0
0.1313131313131315 -0.9797979797979798 0.0
0.1515151515151516 -0.9797979797979798 0.0
0.1717171717171717 -0.9797979797979798 0.0
0.19191919191919204 -0.9797979797979798 0.0
0.21212121212121215 -0.9797979797979798 0.0
0.2323232323232325 -0.9797979797979798 0.0
0.2525252525252526 -0.9797979797979798 0.0
0.27272727272727293 -0.9797979797979798 0.0
0.29292929292929304 -0.9797979797979798 0.0
0.31313131313131315 -0.9797979797979798 0.0
0.3333333333333335 -0.9797979797979798 0.0
0.3535353535353536 -0.9797979797979798 0.0
0.3737373737373739 -0.9797979797979798 0.0
0.39393939393939403 -0.9797979797979798 0.0
0.41414141414141437 -0.9797979797979798 0.0
0.4343434343434345 -0.9797979797979798 0.0
0.4545454545454546 -0.9797979797979798 0.0
0.4747474747474749 -0.9797979797979798 0.0
0.49494949494949503 -0.9797979797979798 0.0
0.5151515151515154 -0.9797979797979798 0.0
0.5353535353535355 -0.9797979797979798 0.0
0.5555555555555556 -0.9797979797979798 0.0
0.5757575757575759 -0.9797979797979798 0.0
0.595959595959596 -0.9797979797979798 0.0
0.6161616161616164 -0.9797979797979798 0.0
0.6363636363636365 -0.9797979797979798 0.0
0.6565656565656568 -0.9797979797979798 0.0
0.6767676767676769 -0.9797979797979798 0.0
0.696969696969697 -0.9797979797979798 0.0
0.7171717171717173 -0.9797979797979798 0.0
0.7373737373737375 -0.9797979797979798 0.0
0.7575757575757578 -0.9797979797979798 0.0
0.7777777777777779 -0.9797979797979798 0.0
0.7979797979797982 -0.9797979797979798 0.0
0.8181818181818183 -0.9797979797979798 0.0
0.8383838383838385 -0.9797979797979798 0.0
0.8585858585858588 -0.9797979797979798 0.0
0.8787878787878789 -0.9797979797979798 0.0
0.8989898989898992 -0.9797979797979798 0.0
0.9191919191919193 -0.9797979797979798 0.0
0.9393939393939394 -0.9797979797979798 0.0
0.9595959595959598 -0.9797979797979798 0.0
0.9797979797979799 -0.9797979797979798 0.0
1.0 -0.9797979797979798 0.0
-1.0 -0.9595959595959596 0.0
-0.9797979797979798 -0.9595959595959596 0.0
-0.9595959595959596 -0.9595959595959596 0.0
-0.9393939393939394 -0.9595959595959596 0.0
-0.9191919191919192 -0.9595959595959596 0.0
-0.898989898989899 -0.9595959595959596 0.0
-0.8787878787878788 -0.9595959595959596 0.0
-0.8585858585858586 -0.9595959595959596 0.0
-0.8383838383838383 -0.9595959595959596 0.0
-0.8181818181818181 -0.9595959595959596 0.0
-0.797979797979798 -0.9595959595959596 0.0
-0.7777777777777778 -0.9595959595959596 0.0
-0.7575757575757576 -0.9595959595959596 0.0
-0.7373737373737373 -0.9595959595959596 0.0
-0.7171717171717171 -0.9595959595959596 0.0
-0.696969696969697 -0.9595959595959596 0.0
-0.6767676767676767 -0.9595959595959596 0.0
-0.6565656565656566 -0.9595959595959596 0.0
-0.6363636363636364 -0.9595959595959596 0.0
-0.6161616161616161 -0.9595959595959596 0.0
-0.5959595959595959 -0.9595959595959596 0.0
-0.5757575757575757 -0.9595959595959596 0.0
-0.5555555555555556 -0.9595959595959596 0.0
-0.5353535353535352 -0.9595959595959596 0.0
-0.5151515151515151 -0.9595959595959596 0.0
-0.4949494949494949 -0.9595959595959596 0.0
-0.4747474747474747 -0.9595959595959596 0.0
-0.4545454545454545 -0.9595959595959596 0.0
-0.43434343434343425 -0.9595959595959596 0.0
-0.41414141414141414 -0.9595959595959596 0.0
-0.3939393939393939 -0.9595959595959596 0.0
-0.3737373737373737 -0.9595959595959596 0.0
-0.3535353535353535 -0.9595959595959596 0.0
-0.33333333333333326 -0.9595959595959596 0.0
-0.31313131313131304 -0.9595959595959596 0.0
-0.2929292929292928 -0.9595959595959596 0.0
-0.2727272727272727 -0.9595959595959596 0.0
-0.2525252525252525 -0.9595959595959596 0.0
-0.23232323232323226 -0.9595959595959596 0.0
-0.21212121212121204 -0.9595959595959596 0.0
-0.19191919191919182 -0.9595959595959596 0.0
-0.1717171717171716 -0.9595959595959596 0.0
-0.1515151515151515 -0.9595959595959596 0.0
-0.13131313131313127 -0.9595959595959596 0.0
-0.11111111111111105 -0.9595959595959596 0.0
-0.09090909090909083 -0.9595959595959596 0.0
-0.07070707070707061 -0.9595959595959596 0.0
-0.050505050505050386 -0.9595959595959596 0.0
-0.030303030303030276 -0.9595959595959596 0.0
-0.010101010101010055 -0.9595959595959596 0.0
0.010101010101010166 -0.9595959595959596 0.0
0.030303030303030498 -0.9595959595959596 0.0
0.05050505050505061 -0.9595959595959596 0.0
0.07070707070707072 -0.9595959595959596 0.0
0.09090909090909105 -0.9595959595959596 0.0
0.11111111111111116 -0.9595959595959596 0.0
0.1313131313131315 -0.9595959595959596 0.0
0.1515151515151516 -0.9595959595959596 0.0
0.1717171717171717 -0.9595959595959596 0.0
0.19191919191919204 -0.9595959595959596 0.0
0.21212121212121215 -0.9595959595959596 0.0
[...]
POINT_DATA 10000
SCALARS u float 1
LOOKUP_TABLE default
0.9370118975639343
0.9532551765441895
0.9567410349845886
0.946266233921051
0.9206481575965881
0.8788072466850281
0.8198906779289246
0.7434443831443787
0.6496224999427795
0.5393966436386108
0.41471487283706665
0.2785405218601227
0.13472133874893188
-0.012317545711994171
-0.15801507234573364
-0.2981138527393341
-0.42902296781539917
-0.5480234622955322
-0.6532914638519287
-0.7438003420829773
-0.8191497921943665
-0.8793722987174988
-0.9247597455978394
-0.9557262063026428
-0.9727088809013367
-0.9761047959327698
-0.9662442803382874
-0.9433816075325012
-0.907720148563385
-0.8594399094581604
-0.7987555861473083
-0.7259811758995056
-0.641598641872406
-0.5463368892669678
-0.4412306249141693
-0.3276706337928772
-0.20740538835525513
-0.08251176029443741
0.04468304663896561
0.17171406745910645
0.2961074709892273
0.41550782322883606
0.5277771353721619
0.6310561299324036
0.7237922549247742
0.8047270178794861
0.8728585839271545
0.9274007678031921
0.9677254557609558
0.9933322668075562
1.003809928894043
0.9988399147987366
0.9782099723815918
0.9418627619743347
0.8899573683738708
0.8229446411132812
0.7416380047798157
0.6472540497779846
0.5414184331893921
0.426126629114151
0.3036516308784485
0.1764381229877472
0.04698430746793747
-0.08227748423814774
-0.20905092358589172
-0.3312433660030365
-0.44698700308799744
-0.5546502470970154
-0.6528222560882568
-0.7402971386909485
-0.8160523176193237
-0.8792225122451782
-0.9290866851806641
-0.9650424122810364
-0.9866030812263489
-0.9933856129646301
-0.9851143956184387
-0.9616361260414124
-0.9229377508163452
-0.8691874146461487
-0.8007833957672119
-0.7184044122695923
-0.6230723261833191
-0.5161895751953125
-0.3995649814605713
-0.2753949761390686
-0.14620789885520935
-0.014746643602848053
0.11616455763578415
0.24378493428230286
0.365610808134079
0.479496568441391
0.5837326049804688
0.6770766377449036
0.7587427496910095
0.8283436894416809
0.8858321309089661
0.9314156174659729
0.9654852747917175
0.9885475039482117
0.9513340592384338
0.9692319631576538
0.9735494256019592
0.9629262089729309
0.9360741972923279
0.8918817043304443
0.8295717835426331
0.7489044666290283
0.6503906846046448
0.5354934334754944
0.40670785307884216
0.26751095056533813
0.12210427969694138
-0.024972833693027496
-0.1692957878112793
-0.30695974826812744
-0.43483787775039673
-0.5506680607795715
-0.6530094146728516
-0.7410926222801208
-0.8146505951881409
-0.8737437725067139
-0.9186171293258667
-0.9495943188667297
-0.9669989943504333
-0.9711149334907532
-0.962164580821991
-0.9403130412101746
-0.9056907296180725
-0.858431339263916
-0.798723042011261
-0.7268727421760559
-0.6433737874031067
-0.5489668846130371
-0.4446992576122284
-0.33195027709007263
-0.2124362587928772
-0.08816630393266678
0.038613371551036835
0.16552790999412537
0.29017922282218933
0.41025400161743164
0.5236111879348755
0.6283469796180725
0.7228193879127502
0.8056482076644897
0.8756906986236572
0.9320070743560791
0.9738211035728455
1.0004910230636597
1.0114964246749878
1.0064449310302734
0.9851074814796448
0.9474765658378601
0.8938340544700623
0.8248262405395508
0.7415102124214172
0.6453613638877869
0.5382306575775146
0.42225632071495056
0.29974454641342163
0.17306214570999146
0.04453123360872269
-0.08362007886171341
-0.20929980278015137
-0.330563485622406
-0.4456309378147125
-0.5528920888900757
-0.6509128212928772
-0.7384388446807861
-0.8143899440765381
-0.8778520822525024
-0.9280605316162109
-0.9643873572349548
-0.986329972743988
-0.9934964776039124
-0.9856114983558655
-0.9625163674354553
-0.9241914749145508
-0.8707888722419739
-0.802675187587738
-0.720486581325531
-0.6251877546310425
-0.5181291103363037
-0.40107017755508423
-0.27618691325187683
-0.14602115750312805
-0.013376452028751373
0.11881624907255173
0.2476751208305359
0.37053850293159485
0.48510488867759705
0.5895389914512634
0.6825070381164551
0.7631765007972717
0.8311588764190674
0.8864396214485168
0.9292848110198975
0.9601600766181946
0.979651153087616
0.9504098892211914
0.9690505862236023
0.9733079671859741
0.9617282748222351
0.9330114722251892
0.8861474394798279
0.8206023573875427
0.7365224957466125
0.6349338889122009
0.5178511142730713
0.3882671892642975
0.24996724724769592
0.10719303041696548
-0.035768963396549225
-0.17497655749320984
-0.30711331963539124
-0.42961645126342773
-0.5406721234321594
-0.6391216516494751
-0.7243149876594543
-0.7959704399108887
-0.8540428876876831
-0.8986254334449768
-0.929870069026947
-0.9479392170906067
-0.9529756903648376
-0.9450899958610535
-0.9243728518486023
-0.8909167647361755
-0.8448540568351746
-0.7864078283309937
-0.715950071811676
-0.634053647518158
-0.5415381789207458
-0.4395048916339874
-0.3293397128582001
-0.21269655227661133
-0.09145734459161758
0.03232257813215256
0.15648436546325684
0.27883535623550415
0.39721742272377014
0.5095711946487427
0.6139872670173645
0.7087367177009583
0.7922952175140381
0.8633354306221008
0.9207162857055664
0.963467001914978
0.9907762408256531
1.001998782157898
0.9966802597045898
0.9746113419532776
0.9358903169631958
0.8809974193572998
0.8108434081077576
0.7267788052558899
0.6305506825447083
0.5241998434066772
0.40992727875709534
0.28996366262435913
0.16646809875965118
0.04148130863904953
-0.08308038860559464
-0.205398827791214
-0.32372966408729553
-0.436397522687912
-0.5418053269386292
-0.6384682059288025
-0.7250398993492126
-0.8003376126289368
-0.8633552193641663
-0.9132581353187561
-0.9493768811225891
-0.9711921811103821
-0.978324830532074
-0.970525324344635
-0.9476779103279114
-0.9098076820373535
-0.8571061491966248
-0.7899617552757263
-0.709013819694519
-0.6151992678642273
-0.5098114609718323
-0.39453187584877014
-0.27144673466682434
-0.14301005005836487
-0.011962302029132843
0.11879725009202957
0.246372789144516
0.3680504560470581
0.48144736886024475
0.5846302509307861
0.6761758923530579
0.7551737427711487
0.8211883902549744
0.874178946018219
0.9144142866134644
0.9423800706863403
0.9586984515190125
0.9334799647331238
0.9517808556556702
0.9549736380577087
0.9416022896766663
0.9104843735694885
0.8608816862106323
0.7926767468452454
0.706564724445343
0.6041576862335205
0.48798707127571106
0.361357182264328
0.22805798053741455
0.09200739115476608
-0.04309574514627457
-0.17402774095535278
-0.298172265291214
-0.4135342240333557
-0.5186635255813599
-0.6125607490539551
-0.6945587396621704
-0.7642400860786438
-0.8213526010513306
-0.8657578825950623
-0.8973886370658875
-0.9162132740020752
-0.9222214221954346
-0.915422260761261
-0.8958537578582764
-0.8636072278022766
-0.818868100643158
-0.7619525790214539
-0.6933577656745911
-0.6137933135032654
-0.5242015719413757
-0.4257602393627167
-0.3198547065258026
-0.208046555519104
-0.09202829748392105
0.026409409940242767
0.14541533589363098
0.26309287548065186
0.3775249421596527
0.4868013262748718
0.5890492796897888
0.6824762225151062
0.7654041647911072
0.8362998962402344
0.8937952518463135
0.9367006421089172
0.9640259742736816
0.975010335445404
0.9691693782806396
0.9463630318641663
0.9068669080734253
0.8514204621315002
0.7812438607215881
0.6979876160621643
0.6036236882209778
0.5002896785736084
0.3901350200176239
0.27519187331199646
0.15731874108314514
0.038198694586753845
-0.08059892803430557
-0.197555273771286
-0.311142235994339
-0.419796347618103
-0.521938145160675
-0.6160181164741516
-0.7005789279937744
-0.7743085026741028
-0.836079478263855
-0.8849658370018005
-0.9202463626861572
-0.9413908123970032
-0.9480461478233337
-0.9400238394737244
-0.9172891974449158
-0.8799600005149841
-0.8283176422119141
-0.7628206610679626
-0.6841516494750977
-0.5932459235191345
-0.49134477972984314
-0.38002824783325195
-0.2612326741218567
-0.13723409175872803
-0.010589249432086945
0.11596985906362534
0.23967072367668152
0.3578623831272125
0.46816641092300415
0.5685994029045105
0.6576518416404724
0.734311044216156
0.7980402708053589
0.8487125039100647
0.8865363001823425
0.9119580984115601
0.9255847334861755
0.9000409245491028
0.9168220162391663
0.9179359674453735
0.9020506739616394
0.8682646751403809
0.8162805438041687
0.746559202671051
0.6604165434837341
0.5600194334983826
0.44824162125587463
0.32840612530708313
0.20396661758422852
0.07820349186658859
-0.04599121958017349
-0.1662161946296692
-0.2805529832839966
-0.3874936103820801
-0.4858493506908417
-0.5746634006500244
-0.6531574726104736
-0.7206900119781494
-0.776742160320282
-0.8208995461463928
-0.8528410792350769
-0.8723300099372864
-0.879207193851471
-0.8733965158462524
-0.8549161553382874
-0.823900043964386
-0.7806365489959717
-0.7255867719650269
-0.6594220995903015
-0.5830190777778625
-0.49745580554008484
-0.40397128462791443
-0.30392199754714966
-0.1987297236919403
-0.08985335379838943
0.02123258262872696
0.13302281498908997
0.24395808577537537
0.3524044454097748
0.45663926005363464
0.5548690557479858
0.6452649235725403
0.7260177135467529
0.7953963875770569
0.8518089652061462
0.8938571810722351
0.9203884601593018
0.93056321144104
0.9239234924316406
0.9004666209220886
0.8607058525085449
0.8056809306144714
0.7369186282157898
0.6563106775283813
0.565941333770752
0.46791312098503113
0.364183634519577
0.2564867436885834
0.1463208794593811
0.0350039079785347
-0.07623241096735
-0.1861429512500763
-0.2933972179889679
-0.396544486284256
-0.4940316379070282
-0.5842589735984802
-0.6656650304794312
-0.7368075847625732
-0.7964338660240173
-0.8435197472572327
-0.8772882223129272
-0.8972057104110718
-0.9029648900032043
-0.8944618105888367
-0.8717765212059021
-0.8351551294326782
-0.7850008010864258
-0.7218837141990662
-0.6465513706207275
-0.5599555969238281
-0.46329012513160706
-0.3580111861228943
-0.24586418271064758
-0.12887519598007202
-0.009312950074672699
0.11037152260541916
0.227658212184906
0.34007617831230164
0.4453437030315399
0.5414867997169495
0.6269289255142212
0.7005413174629211
0.7616410851478577
0.8099619150161743
0.8455808758735657
0.8688477873802185
0.8803057074546814
0.8498850464820862
0.8639667630195618
0.8621100783348083
0.8432639241218567
0.8069788813591003
0.7535431981086731
0.6840677261352539
0.6004514694213867
0.5052430033683777
0.4013725221157074
0.29185935854911804
0.17952582240104675
0.06682177633047104
-0.04424519091844559
-0.1520666778087616
-0.25533527135849
-0.35292744636535645
-0.4438122808933258
-0.5270060896873474
-0.6015576124191284
-0.6665694117546082
-0.7212247252464294
-0.7648184895515442
-0.7967705726623535
-0.8166411519050598
-0.8241391181945801
-0.8191283345222473
-0.8016454577445984
-0.7719153165817261
-0.730372965335846
-0.6776672601699829
-0.6146621704101562
-0.54240483045578
-0.4620794355869293
-0.3749428987503052
-0.2822635769844055
-0.18527686595916748
-0.08516492694616318
0.01692364364862442
0.11982697993516922
0.22231388092041016
0.3230251669883728
0.42043745517730713
0.5128605365753174
0.5984660387039185
0.6753554344177246
0.7416444420814514
0.7955582737922668
0.8355346322059631
0.8603171110153198
0.869056224822998
0.8613942265510559
0.83753901720047
0.7982819080352783
0.744960367679596
0.6793367266654968
0.6034154295921326
0.5192404389381409
0.42871132493019104
0.33347806334495544
0.23490774631500244
0.13412867486476898
0.03213118761777878
-0.07013077288866043
-0.17162930965423584
-0.2711925208568573
-0.3674686849117279
-0.45894381403923035
-0.5440008640289307
-0.6210094690322876
-0.6884291172027588
-0.7449022531509399
-0.7893249988555908
-0.8208758234977722
-0.8390305638313293
-0.8435414433479309
-0.8344064354896545
-0.81183922290802
-0.7762296795845032
-0.7281239628791809
-0.6682063937187195
-0.5973044037818909
-0.5163896083831787
-0.4266009032726288
-0.329260915517807
-0.22589144110679626
-0.11821991950273514
-0.008163593709468842
0.10220294445753098
0.2107076644897461
0.31516921520233154
0.41349318623542786
0.503782331943512
0.5844343900680542
0.6542060971260071
0.7122495770454407
0.7581060528755188
0.7916740775108337
0.8131465911865234
0.8229498863220215
0.7831571102142334
0.7934867739677429
0.7880458831787109
0.766230583190918
0.7281789183616638
0.6748360395431519
0.607912003993988
0.5297147631645203
0.44289085268974304
0.3501037359237671
0.2537878155708313
0.15596303343772888
0.05819740146398544
-0.03832639008760452
-0.13268202543258667
-0.22404608130455017
-0.3115745782852173
-0.39432772994041443
-0.4712555706501007
-0.5412266254425049
-0.6030868887901306
-0.6557354927062988
-0.6981829404830933
-0.7296093106269836
-0.7493909001350403
-0.7571325898170471
-0.752678394317627
-0.7361230254173279
-0.7078273892402649
-0.668407142162323
-0.6187149286270142
-0.5597999691963196
-0.4928400218486786
-0.4190639853477478
-0.33967259526252747
-0.2557772099971771
-0.16837504506111145
-0.0783572569489479
0.013439469039440155
0.10615906864404678
0.1988501250743866
0.2903851568698883
0.3794171214103699
0.4643641412258148
0.5434352159500122
0.6146975159645081
0.6761871576309204
0.7260285019874573
0.762584924697876
0.7845939993858337
0.7912929654121399
0.7825145125389099
0.7587299346923828
0.7210166454315186
0.6709412932395935
0.6103667616844177
0.5412349700927734
0.4653598368167877
0.38429901003837585
0.2993033528327942
0.21135282516479492
0.12124448269605637
0.0297042578458786
-0.06250915676355362
-0.15450981259346008
-0.2452329695224762
-0.33340346813201904
-0.41755858063697815
-0.4961024820804596
-0.567391574382782
-0.6298481225967407
-0.6820653080940247
-0.7228977084159851
-0.7515124082565308
-0.7674152851104736
-0.7704278826713562
-0.7606598734855652
-0.7384523749351501
-0.7043365836143494
-0.6589874029159546
-0.6031971573829651
-0.5378541946411133
-0.4639386236667633
-0.38252875208854675
-0.2947973608970642
-0.20203298330307007
-0.10563980787992477
-0.007145501673221588
0.09179677814245224
0.18943393230438232
0.28394728899002075
0.37351492047309875
0.4563937783241272
0.5310080647468567
0.596031665802002
0.6504501700401306
0.693597137928009
0.7251505255699158
0.7451013326644897
0.7537149786949158
0.7004387974739075
0.7062346339225769
0.697022557258606
0.6727799773216248
0.6342981457710266
0.5831244587898254
0.5213871598243713
0.4515143036842346
0.37592241168022156
0.2967417538166046
0.21564924716949463
0.13382872939109802
0.05204456299543381
-0.02920452505350113
-0.10951850563287735
-0.18842878937721252
-0.2652854025363922
-0.3392038643360138
-0.4090673625469208
-0.4735899269580841
-0.5313993096351624
-0.5811458230018616
-0.6216004490852356
-0.6517373919487
-0.6707929968833923
-0.6783092021942139
-0.6741533279418945
-0.658528208732605
-0.6319576501846313
-0.5952551960945129
-0.5494601130485535
-0.4957607090473175
-0.4353904724121094
-0.3695320785045624
-0.2992425262928009
-0.22540926933288574
-0.1487559676170349
-0.06988859921693802
0.010631255805492401
0.09219186753034592
0.17405059933662415
0.2552485764026642
0.3345722556114197
0.4105355739593506
0.48140934109687805
0.5452924966812134
0.6002307534217834
0.6443692445755005
0.6761273741722107
0.6943643093109131
0.6985263824462891
0.6887186169624329
0.6657037138938904
0.6307920813560486
0.5856485962867737
0.5320559740066528
0.4716942012310028
0.40598347783088684
0.3360280394554138
0.2626419961452484
0.18644088506698608
0.10795163363218307
0.027714133262634277
-0.05362384766340256
-0.13524922728538513
-0.21614962816238403
-0.2951027750968933
-0.37070104479789734
-0.4414052665233612
-0.5056251287460327
-0.5618234276771545
-0.6086233258247375
-0.6449085474014282
-0.6698877215385437
-0.6831225156784058
-0.684518575668335
-0.6742819547653198
-0.6528656482696533
-0.6209040880203247
-0.5791674852371216
-0.5285173654556274
-0.4698742926120758
-0.40420302748680115
-0.33249953389167786
-0.2557838559150696
-0.17510393261909485
-0.0915454849600792
-0.006245933473110199
0.07957690209150314
0.16461336612701416
0.24745681881904602
0.3266195058822632
0.40058037638664246
0.4678587317466736
0.5271016359329224
0.5771628618240356
0.6171738505363464
0.6465776562690735
0.6651419401168823
0.672936737537384
0.6028317809104919
0.6037293672561646
0.5910901427268982
0.5655452609062195
0.5284824371337891
0.4818677604198456
0.42795810103416443
0.3689754903316498
0.3068307340145111
0.24294716119766235
0.1782175600528717
0.11307134479284286
0.04762854427099228
-0.01812545210123062
-0.08415666967630386
-0.15023788809776306
-0.21585601568222046
-0.2801643908023834
-0.3420102894306183
-0.399998277425766
-0.4526022970676422
-0.49829503893852234
-0.5356720089912415
-0.5635635256767273
-0.5811278223991394
-0.5878992080688477
-0.5838251709938049
-0.569246232509613
-0.544869601726532
-0.511684000492096
-0.4708670675754547
-0.4236584007740021
-0.3712427318096161
-0.3146548569202423
-0.2547205984592438
-0.19205519556999207
-0.1271006464958191
-0.060199297964572906
0.00830598920583725
0.07797989994287491
0.14820793271064758
0.2181352972984314
0.2866298258304596
0.3522806465625763
0.4134383499622345
0.4682939946651459
0.5150110125541687
0.5518927574157715
0.5775709748268127
0.5911829471588135
0.5925000309944153
0.5819613337516785
0.5605944395065308
0.529835045337677
0.4912736713886261
0.44641682505607605
0.3965075612068176
0.34245145320892334
0.2848488688468933
0.2240864336490631
0.1604614555835724
0.09429491311311722
0.026019029319286346
-0.04376404732465744
-0.11425871402025223
-0.18446213006973267
-0.2531825602054596
-0.3190694749355316
-0.38067230582237244
-0.4365127384662628
-0.48517706990242004
-0.5254138708114624
-0.5562241077423096
-0.5769258141517639
-0.5871792435646057
-0.5869764089584351
-0.5766023993492126
-0.5565734505653381
-0.527578592300415
-0.4904194176197052
-0.4459732472896576
-0.3951471745967865
-0.33885517716407776
-0.27799272537231445
-0.21341687440872192
-0.14594683051109314
-0.07636577636003494
-0.005449242889881134
0.0660010352730751
0.13710913062095642
0.20688611268997192
0.27421489357948303
0.3378544747829437
0.3964953124523163
0.4488230049610138
0.49362412095069885
0.529869556427002
0.5567910671234131
0.5739253163337708
0.5811368823051453
0.4920317232608795
0.4881817400455475
0.4730243980884552
0.44779178500175476
0.4142943322658539
0.37462931871414185
0.3308572471141815
0.2847130298614502
0.237429678440094
0.1896876096725464
0.14167234301567078
0.09321900457143784
0.04397930949926376
-0.006396211683750153
-0.05810800939798355
-0.11108443886041641
-0.16490182280540466
-0.21875989437103271
-0.2715052664279938
-0.3217022120952606
-0.3677529990673065
-0.40803757309913635
-0.4410686790943146
-0.4656248390674591
-0.48086264729499817
-0.48638418316841125
-0.4822579324245453
-0.4689931571483612
-0.447458416223526
-0.4187696874141693
-0.384143590927124
-0.34476128220558167
-0.30164191126823425
-0.25557196140289307
-0.20708689093589783
-0.15650078654289246
-0.10398589819669724
-0.04966791719198227
0.006269179284572601
0.06349500268697739
0.12145742028951645
0.17934218049049377
0.2360551357269287
0.2902439534664154
0.3403562903404236
0.38473770022392273
0.42177677154541016
0.450076699256897
0.46864569187164307
0.4770421087741852
0.4754599630832672
0.464682400226593
0.44592705368995667
0.4206015169620514
0.39003995060920715
0.3553037643432617
0.31708255410194397
0.27571678161621094
0.23130759596824646
0.18385422229766846
0.13339504599571228
0.08010581880807877
0.024361900985240936
-0.033241502940654755
-0.09188852459192276
-0.15056654810905457
-0.20810166001319885
-0.26320821046829224
-0.3145495355129242
-0.3608098328113556
-0.4007754325866699
-0.433410108089447
-0.4579257071018219
-0.47382310032844543
-0.4809032380580902
-0.4792531430721283
-0.46920379996299744
-0.4512805640697479
-0.4261510372161865
-0.394583135843277
-0.3573986887931824
-0.31543782353401184
-0.26952317357063293
-0.22042647004127502
-0.16883918642997742
-0.11536348611116409
-0.0605124905705452
-0.004740096628665924
0.05151813477277756
0.10777806490659714
0.16345125436782837
0.21779274940490723
0.2698795795440674
0.31863126158714294
0.36285969614982605
0.4013618528842926
0.43302348256111145
0.45691579580307007
0.4723806083202362
0.4790778160095215
0.370351105928421
0.36245623230934143
0.346163809299469
0.32314419746398926
0.2953525483608246
0.2647031545639038
0.23277723789215088
0.20064911246299744
0.1688319742679596
0.1373300552368164
0.10577284544706345
0.07357319444417953