# vtk DataFile Version 3.0
2D PINN Solution
ASCII
DATASET STRUCTURED_GRID
DIMENSIONS 100 100 1
POINTS 10000 float
-1.0 -1.0 0.0
-0.9797979797979798 -1.0 0.0
-0.9595959595959596 -1.0 0.0
-0.9393939393939394 -1.0 0.0
-0.9191919191919192 -1.0 0.0
-0.898989898989899 -1.0 0.0
-0.8787878787878788 -1.0 0.0
-0.8585858585858586 -1.0 0.0
-0.8383838383838383 -1.0 0.0
-0.8181818181818181 -1.0 0.0
-0.797979797979798 -1.0 0.0
-0.7777777777777778 -1.0 0.0
-0.7575757575757576 -1.0 0.0
-0.7373737373737373 -1.0 0.0
-0.7171717171717171 -1.0 0.0
-0.696969696969697 -1.0 0.0
-0.6767676767676767 -1.0 0.0
-0.6565656565656566 -1.0 0.0
-0.6363636363636364 -1.0 0.0
-0.6161616161616161 -1.0 0.0
-0.5959595959595959 -1.0 0.0
-0.5757575757575757 -1.0 0.0
-0.5555555555555556 -1.0 0.0
-0.5353535353535352 -1.0 0.0
-0.5151515151515151 -1.0 0.0
-0.4949494949494949 -1.0 0.0
-0.4747474747474747 -1.0 0.0
-0.4545454545454545 -1.0 0.0
-0.43434343434343425 -1.0 0.0
-0.41414141414141414 -1.0 0.0
-0.3939393939393939 -1.0 0.0
-0.3737373737373737 -1.0 0.0
-0.3535353535353535 -1.0 0.0
-0.33333333333333326 -1.0 0.0
-0.31313131313131304 -1.0 0.0
-0.2929292929292928 -1.0 0.0
-0.2727272727272727 -1.0 0.0
-0.2525252525252525 -1.0 0.0
-0.23232323232323226 -1.0 0.0
-0.21212121212121204 -1.0 0.0
-0.19191919191919182 -1.0 0.0
-0.1717171717171716 -1.0 0.0
-0.1515151515151515 -1.0 0.0
-0.13131313131313127 -1.0 0.0
-0.11111111111111105 -1.0 0.0
-0.09090909090909083 -1.0 0.0
-0.07070707070707061 -1.0 0.0
-0.050505050505050386 -1.0 0.0
-0.030303030303030276 -1.0 0.0
-0.010101010101010055 -1.0 0.0
0.010101010101010166 -1.0 0.0
0.030303030303030498 -1.0 0.0
0.05050505050505061 -1.0 0.0
0.07070707070707072 -1.0 0.0
0.09090909090909105 -1.0 0.0
0.11111111111111116 -1.0 0.0
0.1313131313131315 -1.0 0.0
0.1515151515151516 -1.0 0.0
0.1717171717171717 -1.0 0.0
0.19191919191919204 -1.0 0.0
0.21212121212121215 -1.0 0.0
0.2323232323232325 -1.0 0.0
0.2525252525252526 -1.0 0.0
0.27272727272727293 -1.0 0.0
0.29292929292929304 -1.0 0.0
0.31313131313131315 -1.0 0.0
0.3333333333333335 -1.0 0.0
0.3535353535353536 -1.0 0.0
0.3737373737373739 -1.0 0.0
0.39393939393939403 -1.0 0.0
0.41414141414141437 -1.0 0.0
0.4343434343434345 -1.0 0.0
0.4545454545454546 -1.0 0.0
0.4747474747474749 -1.0 0.0
0.49494949494949503 -1.0 0.0
0.5151515151515154 -1.0 0.0
0.5353535353535355 -1.0 0.0
0.5555555555555556 -1.0 0.0
0.5757575757575759 -1.0 0.0
0.595959595959596 -1.0 0.0
0.6161616161616164 -1.0 0.0
0.6363636363636365 -1.0 0.0
0.6565656565656568 -1.0 0.0
0.6767676767676769 -1.0 0.0
0.696969696969697 -1.0 0.0
0.7171717171717173 -1.0 0.0
0.7373737373737375 -1.0 0.0
0.7575757575757578 -1.0 0.0
0.7777777777777779 -1.0 0.0
0.7979797979797982 -1.0 0.0
0.8181818181818183 -1.0 0.0
0.8383838383838385 -1.0 0.0
0.8585858585858588 -1.0 0.0
0.8787878787878789 -1.0 0.0
0.8989898989898992 -1.0 0.0
0.9191919191919193 -1.0 0.0
0.9393939393939394 -1.0 0.0
0.9595959595959598 -1.0 0.0
0.9797979797979799 -1.0 0.0
1.0 -1.0 0.0
-1.0 -0.9797979797979798 0.0
-0.9797979797979798 -0.9797979797979798 0.0
-0.9595959595959596 -0.9797979797979798 0.0
-0.9393939393939394 -0.9797979797979798 0.0
-0.9191919191919192 -0.9797979797979798 0.0
-0.898989898989899 -0.9797979797979798 0.0
-0.8787878787878788 -0.9797979797979798 0.0
-0.8585858585858586 -0.9797979797979798 0.0
-0.8383838383838383 -0.9797979797979798 0.0
-0.8181818181818181 -0.9797979797979798 0.0
-0.797979797979798 -0.9797979797979798 0.0
-0.7777777777777778 -0.9797979797979798 0.0
-0.7575757575757576 -0.9797979797979798 0.0
-0.7373737373737373 -0.9797979797979798 0.0
-0.7171717171717171 -0.9797979797979798 0.0
-0.696969696969697 -0.9797979797979798 0.0
-0.6767676767676767 -0.9797979797979798 0.0
-0.6565656565656566 -0.9797979797979798 0.0
-0.6363636363636364 -0.9797979797979798 0.0
-0.6161616161616161 -0.9797979797979798 0.0
-0.5959595959595959 -0.9797979797979798 0.0
-0.5757575757575757 -0.9797979797979798 0.0
-0.5555555555555556 -0.9797979797979798 0.0
-0.5353535353535352 -0.9797979797979798 0.0
-0.5151515151515151 -0.9797979797979798 0.0
-0.4949494949494949 -0.9797979797979798 0.0
-0.4747474747474747 -0.9797979797979798 0.0
-0.4545454545454545 -0.9797979797979798 0.0
-0.43434343434343425 -0.9797979797979798 0.0
-0.41414141414141414 -0.9797979797979798 0.0
-0.3939393939393939 -0.9797979797979798 0.0
-0.3737373737373737 -0.9797979797979798 0.0
-0.3535353535353535 -0.9797979797979798 0.0
-0.33333333333333326 -0.9797979797979798 0.0
-0.31313131313131304 -0.9797979797979798 0.0
-0.2929292929292928 -0.9797979797979798 0.0
-0.2727272727272727 -0.9797979797979798 0.0
-0.2525252525252525 -0.9797979797979798 0.0
-0.23232323232323226 -0.9797979797979798 0.0
-0.21212121212121204 -0.9797979797979798 0.0
-0.19191919191919182 -0.9797979797979798 0.0
-0.1717171717171716 -0.9797979797979798 0.0
-0.1515151515151515 -0.9797979797979798 0.0
-0.13131313131313127 -0.9797979797979798 0.0
-0.11111111111111105 -0.9797979797979798 0.0
-0.09090909090909083 -0.9797979797979798 0.0
-0.07070707070707061 -0.9797979797979798 0.0
-0.050505050505050386 -0.9797979797979798 0.0
-0.030303030303030276 -0.9797979797979798 0.0
-0.010101010101010055 -0.9797979797979798 0.0
0.010101010101010166 -0.9797979797979798 0.0
0.030303030303030498 -0.9797979797979798 0.0
0.05050505050505061 -0.9797979797979798 0.0
0.07070707070707072 -0.9797979797979798 0.0
0.09090909090909105 -0.9797979797979798 0.0
0.11111111111111116 -0.9797979797979798 0.0
0.1313131313131315 -0.9797979797979798 0.0
0.1515151515151516 -0.9797979797979798 0.0
0.1717171717171717 -0.9797979797979798 0.0
0.19191919191919204 -0.9797979797979798 0.0
0.21212121212121215 -0.9797979797979798 0.0
0.2323232323232325 -0.9797979797979798 0.0
0.2525252525252526 -0.9797979797979798 0.0
0.27272727272727293 -0.9797979797979798 0.0
0.29292929292929304 -0.9797979797979798 0.0
0.31313131313131315 -0.9797979797979798 0.0
0.3333333333333335 -0.9797979797979798 0.0
0.3535353535353536 -0.9797979797979798 0.0
0.3737373737373739 -0.9797979797979798 0.0
0.39393939393939403 -0.9797979797979798 0.0
0.41414141414141437 -0.9797979797979798 0.0
0.4343434343434345 -0.9797979797979798 0.0
0.4545454545454546 -0.9797979797979798 0.0
0.4747474747474749 -0.9797979797979798 0.0
0.49494949494949503 -0.9797979797979798 0.0
0.5151515151515154 -0.9797979797979798 0.0
0.5353535353535355 -0.9797979797979798 0.0
0.5555555555555556 -0.9797979797979798 0.0
0.5757575757575759 -0.9797979797979798 0.0
0.595959595959596 -0.9797979797979798 0.0
0.6161616161616164 -0.9797979797979798 0.0
0.6363636363636365 -0.9797979797979798 0.0
0.6565656565656568 -0.9797979797979798 0.0
0.6767676767676769 -0.9797979797979798 0.0
0.696969696969697 -0.9797979797979798 0.0
0.7171717171717173 -0.9797979797979798 0.0
0.7373737373737375 -0.9797979797979798 0.0
0.7575757575757578 -0.9797979797979798 0.0
0.7777777777777779 -0.9797979797979798 0.0
0.7979797979797982 -0.9797979797979798 0.0
0.8181818181818183 -0.9797979797979798 0.0
0.8383838383838385 -0.9797979797979798 0.0
0.8585858585858588 -0.9797979797979798 0.0
0.8787878787878789 -0.9797979797979798 0.0
0.8989898989898992 -0.9797979797979798 0.0
0.9191919191919193 -0.9797979797979798 0.0
0.9393939393939394 -0.9797979797979798 0.0
0.9595959595959598 -0.9797979797979798 0.0
0.9797979797979799 -0.9797979797979798 0.0
1.0 -0.9797979797979798 0.0
-1.0 -0.9595959595959596 0.0
-0.9797979797979798 -0.9595959595959596 0.0
-0.9595959595959596 -0.9595959595959596 0.0
-0.9393939393939394 -0.9595959595959596 0.0
-0.9191919191919192 -0.9595959595959596 0.0
-0.898989898989899 -0.9595959595959596 0.0
-0.8787878787878788 -0.9595959595959596 0.0
-0.8585858585858586 -0.9595959595959596 0.0
-0.8383838383838383 -0.9595959595959596 0.0
-0.8181818181818181 -0.9595959595959596 0.0
-0.797979797979798 -0.9595959595959596 0.0
-0.7777777777777778 -0.9595959595959596 0.0
-0.7575757575757576 -0.9595959595959596 0.0
-0.7373737373737373 -0.9595959595959596 0.0
-0.7171717171717171 -0.9595959595959596 0.0
-0.696969696969697 -0.9595959595959596 0.0
-0.6767676767676767 -0.9595959595959596 0.0
-0.6565656565656566 -0.9595959595959596 0.0
-0.6363636363636364 -0.9595959595959596 0.0
-0.6161616161616161 -0.9595959595959596 0.0
-0.5959595959595959 -0.9595959595959596 0.0
-0.5757575757575757 -0.9595959595959596 0.0
-0.5555555555555556 -0.9595959595959596 0.0
-0.5353535353535352 -0.9595959595959596 0.0
-0.5151515151515151 -0.9595959595959596 0.0
-0.4949494949494949 -0.9595959595959596 0.0
-0.4747474747474747 -0.9595959595959596 0.0
-0.4545454545454545 -0.9595959595959596 0.0
-0.43434343434343425 -0.9595959595959596 0.0
-0.41414141414141414 -0.9595959595959596 0.0
-0.3939393939393939 -0.9595959595959596 0.0
-0.3737373737373737 -0.9595959595959596 0.0
-0.3535353535353535 -0.9595959595959596 0.0
-0.33333333333333326 -0.9595959595959596 0.0
-0.31313131313131304 -0.9595959595959596 0.0
-0.2929292929292928 -0.9595959595959596 0.0
-0.2727272727272727 -0.9595959595959596 0.0
-0.2525252525252525 -0.9595959595959596 0.0
-0.23232323232323226 -0.9595959595959596 0.0
-0.21212121212121204 -0.9595959595959596 0.0
-0.19191919191919182 -0.9595959595959596 0.0
-0.1717171717171716 -0.9595959595959596 0.0
-0.1515151515151515 -0.9595959595959596 0.0
-0.13131313131313127 -0.9595959595959596 0.0
-0.11111111111111105 -0.9595959595959596 0.0
-0.09090909090909083 -0.9595959595959596 0.0
-0.07070707070707061 -0.9595959595959596 0.0
-0.050505050505050386 -0.9595959595959596 0.0
-0.030303030303030276 -0.9595959595959596 0.0
-0.010101010101010055 -0.9595959595959596 0.0
0.010101010101010166 -0.9595959595959596 0.0
0.030303030303030498 -0.9595959595959596 0.0
0.05050505050505061 -0.9595959595959596 0.0
0.07070707070707072 -0.9595959595959596 0.0
0.09090909090909105 -0.9595959595959596 0.0
0.11111111111111116 -0.9595959595959596 0.0
0.1313131313131315 -0.9595959595959596 0.0
0.1515151515151516 -0.9595959595959596 0.0
0.1717171717171717 -0.9595959595959596 0.0
0.19191919191919204 -0.9595959595959596 0.0
0.21212121212121215 -0.9595959595959596 0.0
[...]
POINT_DATA 10000
SCALARS u float 1
LOOKUP_TABLE default
0.9868603348731995
0.9846065044403076
0.9681362509727478
0.9377980828285217
0.8939123749732971
0.8367570042610168
0.7665936350822449
0.6837344765663147
0.5886722803115845
0.48222479224205017
0.3656969368457794
0.24098527431488037
0.11059018224477768
-0.022493399679660797
-0.15500333905220032
-0.28370019793510437
-0.40565356612205505
-0.5184507966041565
-0.620295524597168
-0.7099987864494324
-0.7868853211402893
-0.8506642580032349
-0.9012836813926697
-0.9388026595115662
-0.9632791876792908
-0.974692165851593
-0.9728915095329285
-0.957597553730011
-0.9284336566925049
-0.8850123286247253
-0.8270595669746399
-0.7545652985572815
-0.6679428219795227
-0.5681464672088623
-0.4567345082759857
-0.33582544326782227
-0.20799127221107483
-0.07608161121606827
0.0569625124335289
0.1882750689983368
0.31518879532814026
0.4353175461292267
0.5465982556343079
0.6473110318183899
0.7360734343528748
0.8118301630020142
0.8738273978233337
0.9215813875198364
0.9548363089561462
0.9735282063484192
0.9777405858039856
0.9676734209060669
0.9436125159263611
0.9059146046638489
0.8549946546554565
0.791329562664032
0.7154805064201355
0.6281251907348633
0.5301089882850647
0.4225126802921295
0.30670684576034546
0.18440395593643188
0.05765821784734726
-0.07118148356676102
-0.19957324862480164
-0.324928343296051
-0.44475463032722473
-0.5567798018455505
-0.659033477306366
-0.7498793601989746
-0.8280103206634521
-0.8924257755279541
-0.9423882365226746
-0.977385938167572
-0.9970846772193909
-1.0013022422790527
-0.9899815917015076
-0.9631887078285217
-0.9211310148239136
-0.864183247089386
-0.7929453253746033
-0.7082940340042114
-0.6114357709884644
-0.503938615322113
-0.3877350687980652
-0.2650740444660187
-0.13843610882759094
-0.010408289730548859
0.11645667999982834
0.23977899551391602
0.357467383146286
0.46779105067253113
0.5694166421890259
0.6614012122154236
0.74314945936203
0.8143643140792847
0.8749819397926331
0.9251031875610352
0.9649534225463867
0.9948316216468811
0.984802782535553
0.9842455983161926
0.9693266749382019
0.9401824474334717
0.896971583366394
0.8398780226707458
0.7691561579704285
0.6852093935012817
0.5887119174003601
0.4807448089122772
0.36290815472602844
0.23736876249313354
0.10680892318487167
-0.025736279785633087
-0.1571129560470581
-0.28432154655456543
-0.4047296345233917
-0.5162129998207092
-0.6172019839286804
-0.706633985042572
-0.7838597893714905
-0.8485221862792969
-0.9004356861114502
-0.9394828677177429
-0.9655194878578186
-0.9783274531364441
-0.9775716662406921
-0.9628246426582336
-0.9336214661598206
-0.8895633816719055
-0.830461323261261
-0.7564849257469177
-0.6682985424995422
-0.5671321153640747
-0.4547779858112335
-0.3334934115409851
-0.2058570683002472
-0.07460350543260574
0.057522110641002655
0.18786805868148804
0.3139493763446808
0.43348759412765503
0.5444492101669312
0.6450719237327576
0.7338968515396118
0.8097813129425049
0.8719033598899841
0.9197456240653992
0.9530565142631531
0.9718030095100403
0.976118803024292
0.9662536978721619
0.9425355792045593
0.9053431749343872
0.8550920486450195
0.7922401428222656
0.7173028588294983
0.6308884024620056
0.5337508320808411
0.42685192823410034
0.3114411234855652
0.18911117315292358
0.061843134462833405
-0.06801225990056992
-0.19781085848808289
-0.3247661888599396
-0.4461252987384796
-0.559353768825531
-0.6622764468193054
-0.7531524300575256
-0.8306840658187866
-0.8939782977104187
-0.9424790740013123
-0.9758883118629456
-0.9940906167030334
-0.9970969557762146
-0.9849993586540222
-0.9579578042030334
-0.916204571723938
-0.8600755929946899
-0.7900614738464355
-0.7068789005279541
-0.6115332245826721
-0.505384624004364
-0.39017289876937866
-0.26800963282585144
-0.14131569862365723
-0.012704215943813324
0.11515816301107407
0.23971161246299744
0.35864827036857605
0.4700166583061218
0.5722789168357849
0.6643277406692505
0.7454505562782288
0.8152768015861511
0.8737114071846008
0.920863151550293
0.9569916129112244
0.982460618019104
0.9689050316810608
0.9701002836227417
0.9567786455154419
0.928875744342804
0.8864229321479797
0.8295780420303345
0.7586836814880371
0.6743510961532593
0.577552080154419
0.46970853209495544
0.3527319133281708
0.22898772358894348
0.10117834061384201
-0.027835138142108917
-0.15523913502693176
-0.2784546911716461
-0.3952600657939911
-0.5038530826568604
-0.6028483510017395
-0.691227376461029
-0.7682632803916931
-0.8334326148033142
-0.8863321542739868
-0.9266018867492676
-0.9538677334785461
-0.9677029252052307
-0.9676197171211243
-0.9531049132347107
-0.9236948490142822
-0.8790889978408813
-0.8192921280860901
-0.7447437644004822
-0.6564041972160339
-0.5557594299316406
-0.44474729895591736
-0.3256237804889679
-0.2008160650730133
-0.07280144840478897
0.055975787341594696
0.18314063549041748
0.3064129650592804
0.4236246347427368
0.5327626466751099
0.6320186257362366
0.7198477387428284
0.7950136065483093
0.8566154837608337
0.9040843844413757
0.9371500611305237
0.9557918906211853
0.9601762294769287
0.9505929946899414
0.9274097084999084
0.8910332918167114
0.841894805431366
0.7804486751556396
0.7071901559829712
0.6226904392242432
0.5276477932929993
0.4229460656642914
0.30973225831985474
0.18948572874069214
0.06407143920660019
-0.06424690037965775
-0.19285598397254944
-0.3189149498939514
-0.43954381346702576
-0.552031397819519
-0.654030978679657
-0.7436860799789429
-0.8196678757667542
-0.8811460733413696
-0.9276980757713318
-0.9592035412788391
-0.9757412075996399
-0.9775016903877258
-0.964730441570282
-0.9376934170722961
-0.8966760039329529
-0.8420087695121765
-0.7741155028343201
-0.6935843825340271
-0.6012420654296875
-0.49823394417762756
-0.3860742151737213
-0.26666852831840515
-0.14227840304374695
-0.015435166656970978
0.11119555681943893
0.23496919870376587
0.35342955589294434
0.4644373655319214
0.5662537217140198
0.6575855612754822
0.7375561594963074
0.8056797981262207
0.8617833256721497
0.9059423208236694
0.9384201169013977
0.9596313834190369
0.9394301176071167
0.9422572255134583
0.930428683757782
0.9037055373191833
0.8620453476905823
0.8056619763374329
0.7350878119468689
0.6512478590011597
0.5554972887039185
0.44963154196739197
0.3358244001865387
0.21651828289031982
0.09425383061170578
-0.028481312096118927
-0.14938443899154663
-0.2664152681827545
-0.37781304121017456
-0.4820902645587921
-0.577997088432312
-0.664487898349762
-0.7406778335571289
-0.8058026432991028
-0.8591788411140442
-0.900168240070343
-0.9281442165374756
-0.9424892067909241
-0.9426066279411316
-0.9279762506484985
-0.8982370495796204
-0.8533012866973877
-0.7934681177139282
-0.7195063233375549
-0.6326642632484436
-0.5346062183380127
-0.42728450894355774
-0.31280064582824707
-0.19329330325126648
-0.07088134437799454
0.05233994871377945
0.174290269613266
0.2928908169269562
0.406084805727005
0.51188725233078
0.6084587574005127
0.6941879391670227
0.7677543759346008
0.8281788229942322
0.8748272061347961
0.9073854088783264
0.9258129000663757
0.9302777647972107
0.9210891723632812
0.8986438512802124
0.8633803129196167
0.815755307674408
0.7562435269355774
0.6853500008583069
0.6036449074745178
0.5118056535720825
0.41067633032798767
0.3013380467891693
0.18516811728477478
0.06390120834112167
-0.060349978506565094
-0.18511313199996948
-0.30765074491500854
-0.4251149594783783
-0.5347545742988586
-0.6341298818588257
-0.7212831377983093
-0.7948182225227356
-0.8538998961448669
-0.8981701731681824
-0.9276236891746521
-0.9424836039543152
-0.943095862865448
-0.9298434853553772
-0.9031057953834534
-0.8632435202598572
-0.8106161952018738
-0.7456220984458923
-0.6687647700309753
-0.5807296633720398
-0.482464462518692
-0.3752487599849701
-0.26073864102363586
-0.1409601867198944
-0.018255285918712616
0.10482382029294968
0.2256649136543274
0.3417527377605438
0.45081827044487
0.5509461164474487
0.6406425833702087
0.7188461422920227
0.7849025726318359
0.8385136723518372
0.8796808123588562
0.9086431860923767
0.9258367419242859
0.8966025710105896
0.9007743000984192
0.8902139067649841
0.8645572066307068
0.823759138584137
0.7681740522384644
0.6986193060874939
0.6164060831069946
0.5233010053634644
0.42143285274505615
0.3131365478038788
0.20076844096183777
0.08654599636793137
-0.02755913883447647
-0.13984516263008118
-0.2488481104373932
-0.3532685339450836
-0.4519043266773224
-0.543603241443634
-0.6272457242012024
-0.7017462849617004
-0.7660592794418335
-0.8191913962364197
-0.8602039813995361
-0.8882269263267517
-0.9024798274040222
-0.9023168087005615
-0.8872950077056885
-0.85725998878479
-0.8124309778213501
-0.7534701228141785
-0.6814781427383423
-0.5979299545288086
-0.5045475363731384
-0.40315231680870056
-0.29555973410606384
-0.18353283405303955
-0.06879637390375137
0.04690798372030258
0.16177916526794434
0.27393364906311035
0.3814355134963989
0.4823552072048187
0.5748610496520996
0.6573115587234497
0.7283357977867126
0.786884605884552
0.8322508335113525
0.8640512228012085
0.8821898102760315
0.886797308921814
0.8781698346138
0.8567097187042236
0.8228814005851746
0.7771796584129333
0.720119059085846
0.652246356010437
0.574162483215332
0.48656293749809265
0.39028918743133545
0.28638145327568054
0.17613661289215088
0.06115070730447769
-0.056647785007953644
-0.17501384019851685
-0.2914378345012665
-0.4032649099826813
-0.5078619122505188
-0.6028168797492981
-0.6861217617988586
-0.7563040852546692
-0.8124603629112244
-0.8542096614837646
-0.8815818428993225
-0.894879162311554
-0.894553005695343
-0.8811022639274597
-0.8550178408622742
-0.8167470097541809
-0.7667061686515808
-0.705308198928833
-0.6330183744430542
-0.5504224896430969
-0.4583045542240143
-0.35772213339805603
-0.250062495470047
-0.13706576824188232
-0.02079855650663376
0.09641288965940475
0.21209773421287537
0.32379260659217834
0.4291768968105316
0.5262077450752258
0.6132058501243591
0.6889030337333679
0.752444863319397
0.8033658862113953
0.8415507078170776
0.8671759963035583
0.8806785941123962
0.8406315445899963
0.8457140922546387
0.8361246585845947
0.811439573764801
0.7716923356056213
0.7174617648124695
0.6499099731445312
0.5707476735115051
0.4821065664291382
0.38633832335472107
0.2857822775840759
0.18256086111068726
0.0784447118639946
-0.02516482025384903
-0.12717053294181824
-0.2266523540019989
-0.3227318227291107
-0.4144555330276489
-0.5007508397102356
-0.5804160833358765
-0.6521593332290649
-0.7146549224853516
-0.7666009068489075
-0.8067731261253357
-0.8340819478034973
-0.8476343154907227
-0.8468014597892761
-0.8312975168228149
-0.8012534976005554
-0.7572540640830994
-0.7003231644630432
-0.6318413615226746
-0.5533992648124695
-0.46663734316825867
-0.3731285631656647
-0.274325966835022
-0.17159387469291687
-0.06628259271383286
0.04018718749284744
0.1462687849998474
0.2502770721912384
0.3504210412502289
0.44487464427948
0.5318697690963745
0.6097889542579651
0.6772500276565552
0.7331563830375671
0.7767277359962463
0.8074957728385925
0.8252738118171692
0.8301171064376831
0.8222658634185791
0.8021025061607361
0.7700980305671692
0.7267835140228271
0.672732412815094
0.6085548400878906
0.534916341304779
0.45256298780441284
0.36235931515693665
0.26532918214797974
0.16269823908805847
0.055926986038684845
-0.05326882749795914
-0.16291770339012146
-0.2708294689655304
-0.37466561794281006
-0.4720556437969208
-0.5607516169548035
-0.6387930512428284
-0.7046548128128052
-0.7573310732841492
-0.7963436245918274
-0.8216639161109924
-0.8335939049720764
-0.8326283693313599
-0.819347083568573
-0.7943322062492371
-0.7581254839897156
-0.7112177014350891
-0.6540696620941162
-0.5871451497077942
-0.5109759569168091
-0.42622193694114685
-0.3337448537349701
-0.23466667532920837
-0.13041448593139648
-0.02272322028875351
0.08639321476221085
0.19471806287765503
0.2999421954154968
0.3997953236103058
0.4921736717224121
0.5752514004707336
0.6475614309310913
0.7080317139625549
0.756000280380249
0.7911922335624695
0.813692033290863
0.8239057064056396
0.7717564702033997
0.7772059440612793
0.7682737708091736
0.7445608973503113
0.7062579989433289
0.6542235016822815
0.5899707674980164
0.5155516266822815
0.4333348572254181
0.3457241356372833
0.25489842891693115
0.16262370347976685
0.07017930597066879
-0.02157849818468094
-0.11208582669496536
-0.20088061690330505
-0.287430077791214
-0.3710038959980011
-0.4506050646305084
-0.5249754786491394
-0.5926603078842163
-0.6520907878875732
-0.7017028331756592
-0.7400330901145935
-0.7658281922340393
-0.7781428098678589
-0.7764323353767395
-0.7606319189071655
-0.7311869263648987
-0.689035177230835
-0.6354970335960388
-0.5721154808998108
-0.500461757183075
-0.42198264598846436
-0.33793556690216064
-0.24940675497055054
-0.1574012041091919
-0.06295105069875717
0.03279683738946915
0.12853172421455383
0.2227749526500702
0.3139246702194214
0.40031757950782776
0.48031583428382874
0.5523885488510132
0.6151881814002991
0.667603075504303
0.7087906002998352
0.7381860613822937
0.7554935812950134
0.760657787322998
0.7538313269615173
0.7353355884552002
0.7056257724761963
0.6652560830116272
0.614855945110321
0.5551167726516724
0.48678797483444214
0.41068950295448303
0.3277284801006317
0.2389262318611145
0.1454402506351471
0.048589907586574554
-0.050134725868701935
-0.14906549453735352
-0.24637797474861145
-0.3401259481906891
-0.42830875515937805
-0.5089624524116516
-0.5802866220474243
-0.6407752633094788
-0.6893333792686462
-0.7253392338752747
-0.7486280202865601
-0.7594125866889954
-0.7581608891487122
-0.7454792857170105
-0.7220149636268616
-0.6883921027183533
-0.6451868414878845
-0.5929251313209534
-0.5321046113967896
-0.4632358253002167
-0.38689449429512024
-0.30377811193466187
-0.21476641297340393
-0.12096785753965378
-0.023758061230182648
0.07522039860486984
0.17408794164657593
0.2707940340042114
0.36321398615837097
0.44927433133125305
0.5270687341690063
0.5949622392654419
0.6516779065132141
0.6963376402854919
0.7284860014915466
0.7480782866477966
0.7554619908332825
0.6903139352798462
0.6955337524414062
0.6869979500770569
0.664422333240509
0.6282166838645935
0.5795275568962097
0.5201553106307983
0.45235320925712585
0.3785333037376404
0.30096107721328735
0.2215101718902588
0.1415243148803711
0.06181996315717697
-0.01720310002565384
-0.09538710862398148
-0.1726103127002716
-0.2486061155796051
-0.3228246867656708
-0.3943612575531006
-0.4619574248790741
-0.5240674614906311
-0.5789728760719299
-0.6249305605888367
-0.6603273153305054
-0.6838257908821106
-0.6945048570632935
-0.6919600367546082
-0.6763631105422974
-0.6484473347663879
-0.6094092726707458
-0.5607324242591858
-0.5039668679237366
-0.44054052233695984
-0.37164321541786194
-0.29821932315826416
-0.22104424238204956
-0.14084404706954956
-0.05840245634317398
0.025357596576213837
0.1093488410115242
0.19232633709907532
0.27292078733444214
0.349697083234787
0.42121586203575134
0.48609623312950134
0.5430765748023987
0.5910671949386597
0.6291846632957458
0.6567761301994324
0.6734256744384766
0.6789506077766418
0.6733875870704651
0.6569691896438599
0.6301015615463257
0.5933366417884827
0.5473435521125793
0.4928877353668213
0.4308072030544281
0.36200255155563354
0.28743255138397217
0.20811668038368225
0.12514513731002808
0.03968604654073715
-0.04700324684381485
-0.13357031345367432
-0.21857503056526184
-0.30049189925193787
-0.37774279713630676
-0.4487335979938507
-0.511924684047699
-0.5659281611442566
-0.6096178889274597
-0.6422367691993713
-0.6634364128112793
-0.6732645630836487
-0.6720876097679138
-0.6604732871055603
-0.6390885710716248
-0.6086187362670898
-0.569718599319458
-0.5229857563972473
-0.46897003054618835
-0.4081903398036957
-0.34116584062576294
-0.2684650421142578
-0.19075042009353638
-0.10883376747369766
-0.023726440966129303
0.06332828849554062
0.15083912014961243
0.23709207773208618
0.3202095329761505
0.39823904633522034
0.4692784547805786
0.5315937995910645
0.5837352871894836
0.6246216893196106
0.6536052823066711
0.6704880595207214
0.6755259037017822
0.5968348383903503
0.6012359261512756
0.5929573774337769
0.5719010233879089
0.5387205481529236
0.4947929084300995
0.44206684827804565
0.38279303908348083
0.3192116618156433
0.25327184796333313
0.18644112348556519
0.11964260786771774
0.05330955237150192
-0.012483812868595123
-0.07783789187669754
-0.14284318685531616
-0.20740649104118347
-0.2711223065853119
-0.33319637179374695
-0.3924349248409271
-0.44730904698371887
-0.4960764944553375
-0.5369506478309631
-0.5682902932167053
-0.5887871384620667
-0.5976170301437378
-0.5945462584495544
-0.5799466967582703
-0.554737389087677
-0.5202129483222961
-0.47783753275871277
-0.4290202260017395
-0.3749569356441498
-0.31657272577285767
-0.2545602321624756
-0.1894771158695221
-0.12186545878648758
-0.05233297497034073
0.018387548625469208
0.08942990750074387
0.1598021686077118
0.22841808199882507
0.2941257655620575
0.3557448983192444
0.4121035635471344
0.4620806872844696
0.5046504139900208
0.5389201641082764
0.5641684532165527
0.5798712968826294
0.5857145190238953
0.5816081166267395
0.5676725506782532
0.5442391037940979
0.5118223428726196
0.4711016118526459
0.42288556694984436
0.368080198764801
0.3076538145542145
0.24260574579238892
0.17394906282424927
0.1026976928114891
0.02986355870962143
-0.04353264719247818
-0.11645392328500748
-0.18783512711524963
-0.2565719187259674
-0.32151690125465393
-0.3814804255962372
-0.43525561690330505
-0.48166516423225403
-0.5196474194526672
-0.5483604073524475
-0.5672826170921326
-0.5762569904327393
-0.5754725933074951
-0.5653908848762512
-0.5466423630714417
-0.5199331045150757
-0.48597225546836853
-0.44542625546455383
-0.39889833331108093
-0.34692731499671936
-0.29000207781791687
-0.2285863161087036
-0.16315698623657227
-0.09425843507051468
-0.022559531033039093
0.0510919913649559
0.12561804056167603
0.19969120621681213
0.2717512249946594
0.340067982673645
0.4028370976448059
0.45831099152565
0.5049344301223755
0.5414648652076721
0.5670706629753113
0.5813928246498108
0.5845577120780945
0.49213334918022156
0.4952210783958435
0.4872347116470337
0.46831128001213074
0.4393128454685211
0.40172210335731506
0.3574362099170685
0.30847564339637756
0.2567068934440613
0.20362937450408936
0.15026924014091492
0.09717767685651779
0.04451226443052292
-0.007835693657398224
-0.06008312851190567
-0.11240605264902115
-0.1647980511188507
-0.2169571816921234
-0.26821139454841614
-0.31750497221946716
-0.36344435811042786
-0.40441662073135376
-0.4387609660625458
-0.46496954560279846
-0.48188427090644836
-0.4888463318347931
-0.48577943444252014
-0.4731656610965729
-0.45193907618522644
-0.4233022928237915
-0.38851597905158997
-0.34872493147850037
-0.3048570454120636
-0.2576107084751129
-0.2075146734714508
-0.15501287579536438
-0.10054673999547958
-0.04460861533880234
0.012234620749950409
0.06933753937482834
0.12598612904548645
0.18140551447868347
0.2347668707370758
0.2851964235305786
0.33177998661994934
0.3735901415348053
0.40971237421035767
0.43928682804107666
0.4615595042705536
0.47591713070869446
0.4819363057613373
0.4793976843357086
0.4683059751987457
0.4488929212093353
0.42160776257514954
0.3870934247970581
0.34615859389305115
0.29973092675209045
0.24880430102348328
0.19439193606376648
0.13747873902320862
0.07899103313684464
0.019784457981586456
-0.03935476392507553
-0.09769036620855331
-0.15451249480247498
-0.209110826253891
-0.2607472538948059
-0.30863499641418457
-0.35192838311195374
-0.38972947001457214
-0.42113327980041504
-0.44531193375587463
-0.46162161231040955
-0.4697069823741913
-0.4695417582988739
-0.46141353249549866
-0.4458499252796173
-0.4235225021839142
-0.3951568901538849
-0.3614630401134491
-0.3230891525745392
-0.2805929481983185
-0.23444131016731262
-0.1850123107433319
-0.1326303780078888
-0.07760467380285263
-0.02029610425233841
0.03881373256444931
0.09905127435922623
0.1594928503036499
0.21894961595535278
0.27598708868026733
0.329000324010849
0.376329630613327
0.4164036214351654
0.4478852450847626
0.4697946012020111
0.4816155731678009
0.48333272337913513
0.37742698192596436
0.37886619567871094
0.37140920758247375
0.35542553663253784
0.3318847119808197
0.3021997809410095
0.26799339056015015
0.2308458685874939
0.19209739565849304
0.15273058414459229