# vtk DataFile Version 3.0
2D PINN Solution
ASCII
DATASET STRUCTURED_GRID
DIMENSIONS 100 100 1
POINTS 10000 float
-1.0 -1.0 0.0
-0.9797979797979798 -1.0 0.0
-0.9595959595959596 -1.0 0.0
-0.9393939393939394 -1.0 0.0
-0.9191919191919192 -1.0 0.0
-0.898989898989899 -1.0 0.0
-0.8787878787878788 -1.0 0.0
-0.8585858585858586 -1.0 0.0
-0.8383838383838383 -1.0 0.0
-0.8181818181818181 -1.0 0.0
-0.797979797979798 -1.0 0.0
-0.7777777777777778 -1.0 0.0
-0.7575757575757576 -1.0 0.0
-0.7373737373737373 -1.0 0.0
-0.7171717171717171 -1.0 0.0
-0.696969696969697 -1.0 0.0
-0.6767676767676767 -1.0 0.0
-0.6565656565656566 -1.0 0.0
-0.6363636363636364 -1.0 0.0
-0.6161616161616161 -1.0 0.0
-0.5959595959595959 -1.0 0.0
-0.5757575757575757 -1.0 0.0
-0.5555555555555556 -1.0 0.0
-0.5353535353535352 -1.0 0.0
-0.5151515151515151 -1.0 0.0
-0.4949494949494949 -1.0 0.0
-0.4747474747474747 -1.0 0.0
-0.4545454545454545 -1.0 0.0
-0.43434343434343425 -1.0 0.0
-0.41414141414141414 -1.0 0.0
-0.3939393939393939 -1.0 0.0
-0.3737373737373737 -1.0 0.0
-0.3535353535353535 -1.0 0.0
-0.33333333333333326 -1.0 0.0
-0.31313131313131304 -1.0 0.0
-0.2929292929292928 -1.0 0.0
-0.2727272727272727 -1.0 0.0
-0.2525252525252525 -1.0 0.0
-0.23232323232323226 -1.0 0.0
-0.21212121212121204 -1.0 0.0
-0.19191919191919182 -1.0 0.0
-0.1717171717171716 -1.0 0.0
-0.1515151515151515 -1.0 0.0
-0.13131313131313127 -1.0 0.0
-0.11111111111111105 -1.0 0.0
-0.09090909090909083 -1.0 0.0
-0.07070707070707061 -1.0 0.0
-0.050505050505050386 -1.0 0.0
-0.030303030303030276 -1.0 0.0
-0.010101010101010055 -1.0 0.0
0.010101010101010166 -1.0 0.0
0.030303030303030498 -1.0 0.0
0.05050505050505061 -1.0 0.0
0.07070707070707072 -1.0 0.0
0.09090909090909105 -1.0 0.0
0.11111111111111116 -1.0 0.0
0.1313131313131315 -1.0 0.0
0.1515151515151516 -1.0 0.0
0.1717171717171717 -1.0 0.0
0.19191919191919204 -1.0 0.0
0.21212121212121215 -1.0 0.0
0.2323232323232325 -1.0 0.0
0.2525252525252526 -1.0 0.0
0.27272727272727293 -1.0 0.0
0.29292929292929304 -1.0 0.0
0.31313131313131315 -1.0 0.0
0.3333333333333335 -1.0 0.0
0.3535353535353536 -1.0 0.0
0.3737373737373739 -1.0 0.0
0.39393939393939403 -1.0 0.0
0.41414141414141437 -1.0 0.0
0.4343434343434345 -1.0 0.0
0.4545454545454546 -1.0 0.0
0.4747474747474749 -1.0 0.0
0.49494949494949503 -1.0 0.0
0.5151515151515154 -1.0 0.0
0.5353535353535355 -1.0 0.0
0.5555555555555556 -1.0 0.0
0.5757575757575759 -1.0 0.0
0.595959595959596 -1.0 0.0
0.6161616161616164 -1.0 0.0
0.6363636363636365 -1.0 0.0
0.6565656565656568 -1.0 0.0
0.6767676767676769 -1.0 0.0
0.696969696969697 -1.0 0.0
0.7171717171717173 -1.0 0.0
0.7373737373737375 -1.0 0.0
0.7575757575757578 -1.0 0.0
0.7777777777777779 -1.0 0.0
0.7979797979797982 -1.0 0.0
0.8181818181818183 -1.0 0.0
0.8383838383838385 -1.0 0.0
0.8585858585858588 -1.0 0.0
0.8787878787878789 -1.0 0.0
0.8989898989898992 -1.0 0.0
0.9191919191919193 -1.0 0.0
0.9393939393939394 -1.0 0.0
0.9595959595959598 -1.0 0.0
0.9797979797979799 -1.0 0.0
1.0 -1.0 0.0
-1.0 -0.9797979797979798 0.0
-0.9797979797979798 -0.9797979797979798 0.0
-0.9595959595959596 -0.9797979797979798 0.0
-0.9393939393939394 -0.9797979797979798 0.0
-0.9191919191919192 -0.9797979797979798 0.0
-0.898989898989899 -0.9797979797979798 0.0
-0.8787878787878788 -0.9797979797979798 0.0
-0.8585858585858586 -0.9797979797979798 0.0
-0.8383838383838383 -0.9797979797979798 0.0
-0.8181818181818181 -0.9797979797979798 0.0
-0.797979797979798 -0.9797979797979798 0.0
-0.7777777777777778 -0.9797979797979798 0.0
-0.7575757575757576 -0.9797979797979798 0.0
-0.7373737373737373 -0.9797979797979798 0.0
-0.7171717171717171 -0.9797979797979798 0.0
-0.696969696969697 -0.9797979797979798 0.0
-0.6767676767676767 -0.9797979797979798 0.0
-0.6565656565656566 -0.9797979797979798 0.0
-0.6363636363636364 -0.9797979797979798 0.0
-0.6161616161616161 -0.9797979797979798 0.0
-0.5959595959595959 -0.9797979797979798 0.0
-0.5757575757575757 -0.9797979797979798 0.0
-0.5555555555555556 -0.9797979797979798 0.0
-0.5353535353535352 -0.9797979797979798 0.0
-0.5151515151515151 -0.9797979797979798 0.0
-0.4949494949494949 -0.9797979797979798 0.0
-0.4747474747474747 -0.9797979797979798 0.0
-0.4545454545454545 -0.9797979797979798 0.0
-0.43434343434343425 -0.9797979797979798 0.0
-0.41414141414141414 -0.9797979797979798 0.0
-0.3939393939393939 -0.9797979797979798 0.0
-0.3737373737373737 -0.9797979797979798 0.0
-0.3535353535353535 -0.9797979797979798 0.0
-0.33333333333333326 -0.9797979797979798 0.0
-0.31313131313131304 -0.9797979797979798 0.0
-0.2929292929292928 -0.9797979797979798 0.0
-0.2727272727272727 -0.9797979797979798 0.0
-0.2525252525252525 -0.9797979797979798 0.0
-0.23232323232323226 -0.9797979797979798 0.0
-0.21212121212121204 -0.9797979797979798 0.0
-0.19191919191919182 -0.9797979797979798 0.0
-0.1717171717171716 -0.9797979797979798 0.0
-0.1515151515151515 -0.9797979797979798 0.0
-0.13131313131313127 -0.9797979797979798 0.0
-0.11111111111111105 -0.9797979797979798 0.0
-0.09090909090909083 -0.9797979797979798 0.0
-0.07070707070707061 -0.9797979797979798 0.0
-0.050505050505050386 -0.9797979797979798 0.0
-0.030303030303030276 -0.9797979797979798 0.0
-0.010101010101010055 -0.9797979797979798 0.0
0.010101010101010166 -0.9797979797979798 0.0
0.030303030303030498 -0.9797979797979798 0.0
0.05050505050505061 -0.9797979797979798 0.0
0.07070707070707072 -0.9797979797979798 0.0
0.09090909090909105 -0.9797979797979798 0.0
0.11111111111111116 -0.9797979797979798 0.0
0.1313131313131315 -0.9797979797979798 0.0
0.1515151515151516 -0.9797979797979798 0.0
0.1717171717171717 -0.9797979797979798 0.0
0.19191919191919204 -0.9797979797979798 0.0
0.21212121212121215 -0.9797979797979798 0.0
0.2323232323232325 -0.9797979797979798 0.0
0.2525252525252526 -0.9797979797979798 0.0
0.27272727272727293 -0.9797979797979798 0.0
0.29292929292929304 -0.9797979797979798 0.0
0.31313131313131315 -0.9797979797979798 0.0
0.3333333333333335 -0.9797979797979798 0.0
0.3535353535353536 -0.9797979797979798 0.0
0.3737373737373739 -0.9797979797979798 0.0
0.39393939393939403 -0.9797979797979798 0.0
0.41414141414141437 -0.9797979797979798 0.0
0.4343434343434345 -0.9797979797979798 0.0
0.4545454545454546 -0.9797979797979798 0.0
0.4747474747474749 -0.9797979797979798 0.0
0.49494949494949503 -0.9797979797979798 0.0
0.5151515151515154 -0.9797979797979798 0.0
0.5353535353535355 -0.9797979797979798 0.0
0.5555555555555556 -0.9797979797979798 0.0
0.5757575757575759 -0.9797979797979798 0.0
0.595959595959596 -0.9797979797979798 0.0
0.6161616161616164 -0.9797979797979798 0.0
0.6363636363636365 -0.9797979797979798 0.0
0.6565656565656568 -0.9797979797979798 0.0
0.6767676767676769 -0.9797979797979798 0.0
0.696969696969697 -0.9797979797979798 0.0
0.7171717171717173 -0.9797979797979798 0.0
0.7373737373737375 -0.9797979797979798 0.0
0.7575757575757578 -0.9797979797979798 0.0
0.7777777777777779 -0.9797979797979798 0.0
0.7979797979797982 -0.9797979797979798 0.0
0.8181818181818183 -0.9797979797979798 0.0
0.8383838383838385 -0.9797979797979798 0.0
0.8585858585858588 -0.9797979797979798 0.0
0.8787878787878789 -0.9797979797979798 0.0
0.8989898989898992 -0.9797979797979798 0.0
0.9191919191919193 -0.9797979797979798 0.0
0.9393939393939394 -0.9797979797979798 0.0
0.9595959595959598 -0.9797979797979798 0.0
0.9797979797979799 -0.9797979797979798 0.0
1.0 -0.9797979797979798 0.0
-1.0 -0.9595959595959596 0.0
-0.9797979797979798 -0.9595959595959596 0.0
-0.9595959595959596 -0.9595959595959596 0.0
-0.9393939393939394 -0.9595959595959596 0.0
-0.9191919191919192 -0.9595959595959596 0.0
-0.898989898989899 -0.9595959595959596 0.0
-0.8787878787878788 -0.9595959595959596 0.0
-0.8585858585858586 -0.9595959595959596 0.0
-0.8383838383838383 -0.9595959595959596 0.0
-0.8181818181818181 -0.9595959595959596 0.0
-0.797979797979798 -0.9595959595959596 0.0
-0.7777777777777778 -0.9595959595959596 0.0
-0.7575757575757576 -0.9595959595959596 0.0
-0.7373737373737373 -0.9595959595959596 0.0
-0.7171717171717171 -0.9595959595959596 0.0
-0.696969696969697 -0.9595959595959596 0.0
-0.6767676767676767 -0.9595959595959596 0.0
-0.6565656565656566 -0.9595959595959596 0.0
-0.6363636363636364 -0.9595959595959596 0.0
-0.6161616161616161 -0.9595959595959596 0.0
-0.5959595959595959 -0.9595959595959596 0.0
-0.5757575757575757 -0.9595959595959596 0.0
-0.5555555555555556 -0.9595959595959596 0.0
-0.5353535353535352 -0.9595959595959596 0.0
-0.5151515151515151 -0.9595959595959596 0.0
-0.4949494949494949 -0.9595959595959596 0.0
-0.4747474747474747 -0.9595959595959596 0.0
-0.4545454545454545 -0.9595959595959596 0.0
-0.43434343434343425 -0.9595959595959596 0.0
-0.41414141414141414 -0.9595959595959596 0.0
-0.3939393939393939 -0.9595959595959596 0.0
-0.3737373737373737 -0.9595959595959596 0.0
-0.3535353535353535 -0.9595959595959596 0.0
-0.33333333333333326 -0.9595959595959596 0.0
-0.31313131313131304 -0.9595959595959596 0.0
-0.2929292929292928 -0.9595959595959596 0.0
-0.2727272727272727 -0.9595959595959596 0.0
-0.2525252525252525 -0.9595959595959596 0.0
-0.23232323232323226 -0.9595959595959596 0.0
-0.21212121212121204 -0.9595959595959596 0.0
-0.19191919191919182 -0.9595959595959596 0.0
-0.1717171717171716 -0.9595959595959596 0.0
-0.1515151515151515 -0.9595959595959596 0.0
-0.13131313131313127 -0.9595959595959596 0.0
-0.11111111111111105 -0.9595959595959596 0.0
-0.09090909090909083 -0.9595959595959596 0.0
-0.07070707070707061 -0.9595959595959596 0.0
-0.050505050505050386 -0.9595959595959596 0.0
-0.030303030303030276 -0.9595959595959596 0.0
-0.010101010101010055 -0.9595959595959596 0.0
0.010101010101010166 -0.9595959595959596 0.0
0.030303030303030498 -0.9595959595959596 0.0
0.05050505050505061 -0.9595959595959596 0.0
0.07070707070707072 -0.9595959595959596 0.0
0.09090909090909105 -0.9595959595959596 0.0
0.11111111111111116 -0.9595959595959596 0.0
0.1313131313131315 -0.9595959595959596 0.0
0.1515151515151516 -0.9595959595959596 0.0
0.1717171717171717 -0.9595959595959596 0.0
0.19191919191919204 -0.9595959595959596 0.0
0.21212121212121215 -0.9595959595959596 0.0
[...]
POINT_DATA 10000
SCALARS u float 1
LOOKUP_TABLE default
0.3174457252025604
0.2525550425052643
0.18665465712547302
0.12026556581258774
0.053575240075588226
-0.013382740318775177
-0.08055330067873001
-0.14770862460136414
-0.21434292197227478
-0.27963465452194214
-0.34245139360427856
-0.4014211595058441
-0.4550364911556244
-0.5017754435539246
-0.5402296185493469
-0.569216787815094
-0.5878656506538391
-0.595676064491272
-0.5925430655479431
-0.5787633657455444
-0.5549935698509216
-0.522191047668457
-0.48150941729545593
-0.4341893494129181
-0.38143739104270935
-0.3243246078491211
-0.26372379064559937
-0.2002948820590973
-0.13451841473579407
-0.06676603108644485
0.002605043351650238
0.07315971702337265
0.1442933976650238
0.21516790986061096
0.284670889377594
0.3514111340045929
0.4137512445449829
0.4698861837387085
0.5179675817489624
0.5562670230865479
0.5833653807640076
0.5983327627182007
0.6008595824241638
0.5913066267967224
0.5706400275230408
0.5402642488479614
0.5017727613449097
0.4567089378833771
0.4063743054866791
0.35174208879470825
0.293470174074173
0.23199021816253662
0.16762596368789673
0.1007082536816597
0.031667985022068024
-0.03890659660100937
-0.11023113876581192
-0.18131983280181885
-0.2509918212890625
-0.3179052174091339
-0.38060855865478516
-0.4376167953014374
-0.48749884963035583
-0.5289807915687561
-0.5610329508781433
-0.5829397439956665
-0.5943281054496765
-0.595158576965332
-0.5856871008872986
-0.5664041638374329
-0.5379756093025208
-0.5011882781982422
-0.4569014012813568
-0.40601256489753723
-0.3494313657283783
-0.28805413842201233
-0.22275236248970032
-0.1543637216091156
-0.08370258659124374
-0.01157473772764206
0.06117718666791916
0.13364192843437195
0.20479515194892883
0.27348700165748596
0.3384557068347931
0.3983660936355591
0.4518941342830658
0.49781334400177
0.5350893139839172
0.5629475116729736
0.5809208750724792
0.5888682007789612
0.5869612097740173
0.5756626725196838
0.555693507194519
0.5280005931854248
0.4937194883823395
0.4541435241699219
0.4106855094432831
0.36483851075172424
0.2468414306640625
0.19795984029769897
0.14873167872428894
0.09905781596899033
0.048638127744197845
-0.0028562620282173157
-0.055620528757572174
-0.10959342867136002
-0.1643722951412201
-0.21918383240699768
-0.2728951871395111
-0.3240908682346344
-0.3711867332458496
-0.41256189346313477
-0.4467146694660187
-0.472394734621048
-0.488718181848526
-0.49523666501045227
-0.49196234345436096
-0.4793511927127838
-0.4582289755344391
-0.42968669533729553
-0.39494046568870544
-0.3551907539367676
-0.31149765849113464
-0.2647000551223755
-0.21538546681404114
-0.16391530632972717
-0.1104949340224266
-0.05526743084192276
0.0015795603394508362
0.05972524732351303
0.11863677948713303
0.17752236127853394
0.23531067371368408
0.29066604375839233
0.34204384684562683
0.38778066635131836
0.4262392222881317
0.45597192645072937
0.4759182631969452
0.4855552613735199
0.48498988151550293
0.47493723034858704
0.45657506585121155
0.4313110411167145
0.40051546692848206
0.36531198024749756
0.3264620304107666
0.28437498211860657
0.23920035362243652
0.19097048044204712
0.1397327482700348
0.08566080778837204
0.029117248952388763
-0.029318958520889282
-0.08884800225496292
-0.14847254753112793
-0.20702815055847168
-0.26323121786117554
-0.3157382011413574
-0.36321812868118286
-0.4044320285320282
-0.43831345438957214
-0.4640381634235382
-0.4810706675052643
-0.4891768991947174
-0.4884167015552521
-0.4790935218334198
-0.4617154896259308
-0.4369353950023651
-0.40550699830055237
-0.36824384331703186
-0.3259831964969635
-0.2795509099960327
-0.2297273874282837
-0.1772235631942749
-0.12266922742128372
-0.06660807877779007
-0.009531281888484955
0.04808817058801651
0.10573212057352066
0.16278088092803955
0.21846333146095276
0.27183666825294495
0.32180237770080566
0.36716321110725403
0.40670889616012573
0.4393177032470703
0.46405643224716187
0.48026224970817566
0.48758676648139954
0.4860283434391022
0.4759152829647064
0.45789217948913574
0.43287423253059387
0.4020075500011444
0.3666183650493622
0.32815414667129517
0.28813156485557556
0.17690390348434448
0.1442210078239441
0.11147385090589523
0.07812093943357468
0.04354386776685715
0.0072039589285850525
-0.031237490475177765
-0.07181484252214432
-0.11419937759637833
-0.15767177939414978
-0.20114341378211975
-0.2432270050048828
-0.28234753012657166
-0.3168943524360657
-0.3453766703605652
-0.3665907680988312
-0.37973126769065857
-0.38448113203048706
-0.3810102641582489
-0.36993980407714844
-0.35221895575523376
-0.3289887607097626
-0.30141159892082214
-0.27052047848701477
-0.23711934685707092
-0.2017328143119812
-0.16462066769599915
-0.12584525346755981
-0.08536479622125626
-0.043148256838321686
0.0007285699248313904
0.045998238027095795
0.09214385598897934
0.13837361335754395
0.1836271584033966
0.226620614528656
0.2659224569797516
0.3000769019126892
0.3277550935745239
0.34792643785476685
0.3600211441516876
0.36403948068618774
0.360552042722702
0.3505941927433014
0.3354420065879822
0.3163469135761261
0.29429781436920166
0.2698843479156494
0.2432788908481598
0.21433380246162415
0.18273839354515076
0.14818191528320312
0.11049669235944748
0.06974010914564133
0.026236794888973236
-0.019426681101322174
-0.06642968207597733
-0.11376280337572098
-0.16028320789337158
-0.20478102564811707
-0.24604925513267517
-0.2829536497592926
-0.3145080506801605
-0.339926153421402
-0.35866355895996094
-0.3704293370246887
-0.37517085671424866
-0.37304598093032837
-0.36438557505607605
-0.34965357184410095
-0.32941940426826477
-0.30433180928230286
-0.2750873267650604
-0.24240300059318542
-0.20697784423828125
-0.169450044631958
-0.130367249250412
-0.09016094356775284
-0.04914403706789017
-0.007536269724369049
0.03449436277151108
0.07676681131124496
0.11901681870222092
0.16082799434661865
0.20159053802490234
0.24048474431037903
0.276513010263443
0.3085719645023346
0.33554837107658386
0.35643282532691956
0.3704241216182709
0.37701061367988586
0.37602174282073975
0.36764588952064514
0.3524199426174164
0.33118465542793274
0.3050477206707001
0.2753022313117981
0.24337011575698853
0.2107211947441101
0.10824563354253769
0.0913562998175621
0.07446249574422836
0.05674006789922714
0.037401191890239716
0.015804819762706757
-0.008447356522083282
-0.03543952852487564
-0.06489855796098709
-0.09617406874895096
-0.1282636523246765
-0.15987589955329895
-0.1895483434200287
-0.21578875184059143
-0.23725107312202454
-0.2528890073299408
-0.2620876133441925
-0.2647217810153961
-0.2611503303050995
-0.25212612748146057
-0.2386476695537567
-0.221792072057724
-0.2025347650051117
-0.18162667751312256
-0.15952527523040771
-0.136392742395401
-0.11215458065271378
-0.08659691363573074
-0.05947805196046829
-0.030640728771686554
-0.00010309368371963501
0.03187457472085953
0.06475424021482468
0.09772156924009323
0.12972351908683777
0.1595413088798523
0.18590250611305237
0.20762857794761658
0.22379475831985474
0.23389199376106262
0.2379317283630371
0.2364727258682251
0.23052603006362915
0.22134897112846375
0.21017536520957947
0.19796186685562134
0.18521681427955627
0.1719609797000885
0.15780586004257202
0.14211520552635193
0.12419726699590683
0.10347454994916916
0.07960990816354752
0.05257163196802139
0.022650279104709625
-0.009570755064487457
-0.0432688370347023
-0.07744865864515305
-0.11102188378572464
-0.1428866684436798
-0.17200836539268494
-0.1974937915802002
-0.21865132451057434
-0.23502132296562195
-0.24637940526008606
-0.25271016359329224
-0.2541619837284088
-0.25099262595176697
-0.24353089928627014
-0.2321576178073883
-0.21729916334152222
-0.19943225383758545
-0.1790737509727478
-0.15676391124725342
-0.13302940130233765
-0.10834071785211563
-0.0830707922577858
-0.05746925622224808
-0.03165116161108017
-0.005617894232273102
0.020704634487628937
0.04740283638238907
0.07450508326292038
0.10190757364034653
0.12931665778160095
0.15621331334114075
0.18185552954673767
0.2053338587284088
0.22564616799354553
0.24181082844734192
0.25297921895980835
0.2585373520851135
0.25818508863449097
0.2519715428352356
0.2402987778186798
0.2238965928554535
0.20375806093215942
0.1810784935951233
0.1571669578552246
0.13337546586990356
0.04103618115186691
0.0391283854842186
0.03719877451658249
0.0342765673995018
0.02950602024793625
0.022224389016628265
0.012023203074932098
-0.0012019351124763489
-0.01722688227891922
-0.03548798710107803
-0.05511213093996048
-0.07497815042734146
-0.09383101016283035
-0.1104198470711708
-0.12366370111703873
-0.13279953598976135
-0.1374901831150055
-0.13785529136657715
-0.1344313621520996
-0.1280410885810852
-0.11963040381669998
-0.11008278280496597
-0.10007546097040176
-0.08998469263315201
-0.07987350970506668
-0.0695342943072319
-0.0585784986615181
-0.04655850678682327
-0.03307945281267166
-0.017906971275806427
-0.0010393336415290833
0.017242394387722015
0.0363684818148613
0.05550674349069595
0.07363220304250717
0.08963673561811447
0.10247310250997543
0.11131959408521652
0.11573871225118637
0.1157996878027916
0.1121111735701561
0.10574515908956528
0.09804088622331619
0.09033217281103134
0.08367351442575455
0.07863416522741318
0.07522249966859818
0.07293903082609177
0.07092567533254623
0.06816812604665756
0.06369199603796005
0.056726761162281036
0.046806178987026215
0.03382154554128647
0.01801363378763199
-7.081776857376099e-05
-0.01965036243200302
-0.039797745645046234
-0.05953162908554077
-0.07791490107774734
-0.09413795918226242
-0.107591412961483
-0.1179061308503151
-0.12496224790811539
-0.12885570526123047
-0.12983691692352295
-0.12823790311813354
-0.12440112978219986
-0.11863931268453598
-0.11122860759496689
-0.10242024809122086
-0.09247603267431259
-0.08168331533670425
-0.07035570591688156
-0.05880492180585861
-0.047303207218647
-0.036040566861629486
-0.02509034425020218
-0.014400087296962738
-0.003801696002483368
0.006959758698940277
0.018170438706874847
0.030082635581493378
0.04284941405057907
0.05645718425512314
0.07068606466054916
0.08508653193712234
0.09901095181703568
0.11166464537382126
0.12220355123281479
0.1298370659351349
0.13393881916999817
0.13413307070732117
0.13035371899604797
0.12285531312227249
0.11220283061265945
0.09921478480100632
0.08490019291639328
0.07037583738565445
0.05678602308034897
-0.02480728179216385
-0.012782640755176544
-0.0007525160908699036
0.010262064635753632
0.019406013190746307
0.02603902667760849
0.02977123111486435
0.030489347875118256
0.02836351841688156
0.023845843970775604
0.0176348015666008
0.010607413947582245
0.0037155374884605408
-0.002144642174243927
-0.006274260580539703
-0.008291400969028473
-0.008194990456104279
-0.006362952291965485
-0.0034593716263771057
-0.00029034167528152466
0.0023705288767814636
0.003936015069484711
0.004113279283046722
0.002939276397228241
0.0007485672831535339
-0.0019075796008110046
-0.004375360906124115
-0.006021834909915924
-0.006343640387058258
-0.0050628408789634705
-0.0021794065833091736
0.0020030662417411804
0.006894879043102264
0.011677257716655731
0.015411041676998138
0.017170242965221405
0.016216956079006195
0.012164674699306488
0.005118034780025482
-0.0042752549052238464
-0.014876790344715118
-0.02523837238550186
-0.03386475890874863
-0.039509810507297516
-0.041407592594623566
-0.03940073400735855
-0.03392646461725235
-0.025894932448863983
-0.01649511605501175
-0.006991498172283173
0.0014659985899925232
0.00797804445028305
0.011987201869487762
0.013302542269229889
0.01209075003862381
0.008810527622699738
0.004140608012676239
-0.001130424439907074
-0.006208069622516632
-0.010389573872089386
-0.013153471052646637
-0.014215134084224701
-0.013543017208576202
-0.011339515447616577
-0.007979698479175568
-0.00392691045999527
0.00035055726766586304
0.0044542476534843445
0.00809895247220993
0.0111137256026268
0.013418637216091156
0.01497969776391983
0.015766404569149017
0.01573016494512558
0.014811046421527863
0.012966267764568329
0.01020505279302597
0.006623171269893646
0.002421550452709198
-0.002099044620990753
-0.006556667387485504
-0.010527946054935455
-0.013595856726169586
-0.015413917601108551
-0.01575642079114914
-0.014570675790309906
-0.01199900358915329
-0.008387915790081024
-0.004239879548549652
-0.00016719847917556763
0.003208257257938385
0.00534462183713913
0.00586593896150589
0.004624359309673309
0.0017293915152549744
-0.0024533793330192566
-0.0073443129658699036
-0.012198887765407562
-0.016183696687221527
-0.01843131333589554
-0.0894387736916542
-0.06463644653558731
-0.03966683894395828
-0.015543617308139801
0.006917499005794525
0.027119837701320648
0.04469641298055649
0.05951889604330063
0.07168670743703842
0.08150585740804672
0.08944415301084518
0.09606223553419113
0.10191827267408371
0.10745920985937119
0.11291345208883286
0.11822827905416489
0.12305083125829697
0.12679091095924377
0.1287350058555603
0.12820017337799072
0.12468235939741135
0.11796357482671738
0.10816314071416855
0.09571855515241623
0.08132015913724899
0.06580284982919693
0.05002766102552414
0.03476326912641525
0.020583175122737885
0.007794968783855438
-0.0036028996109962463
-0.013917200267314911
-0.023715578019618988
-0.03373829275369644
-0.044760651886463165
-0.05742735415697098
-0.07207969576120377
-0.08860207349061966
-0.10634643584489822
-0.12414971739053726
-0.140497088432312
-0.1537543535232544
-0.16247054934501648
-0.1656295657157898
-0.1628161370754242
-0.15424978733062744
-0.14070522785186768
-0.12335328012704849
-0.10356257110834122
-0.08271384984254837
-0.06203416734933853
-0.042485274374485016
-0.024696893990039825
-0.008945904672145844
0.00481858104467392
0.016914837062358856
0.027838103473186493
0.03815337270498276
0.0483848974108696
0.0589151605963707
0.06991855055093765
0.08132504671812057
0.09283293038606644
0.10396220535039902
0.11412843316793442
0.12273230403661728
0.12923753261566162
0.1332334280014038
0.13446739315986633
0.1328577995300293
0.1284683644771576
0.12147360295057297
0.11209701746702194
0.10057304054498672
0.087122343480587
0.07195831090211868
0.05530943721532822
0.03744804114103317
0.01870838552713394
-0.0005010142922401428
-0.019707031548023224
-0.038394711911678314
-0.05604187399148941
-0.07215677946805954
-0.0863245353102684
-0.09824810177087784
-0.10778255015611649
-0.11494293063879013
-0.1199023500084877
-0.12295851856470108
-0.1244722381234169
-0.12481056898832321
-0.12427381426095963
-0.12303531914949417
-0.12111704796552658
-0.11837168782949448
-0.11450456827878952
-0.1091030016541481
-0.101682148873806
-0.09172964841127396
-0.1529390513896942
-0.11652801185846329
-0.079600490629673
-0.04312688857316971
-0.007872410118579865
0.02560659497976303
0.05695667117834091
0.08601095527410507
0.11275934427976608
0.13731542229652405
0.15985500812530518
0.18055006861686707
0.19948694109916687
0.21659696102142334
0.23160171508789062
0.24401158094406128
0.2531720995903015
0.2583608031272888
0.2589232325553894
0.25439453125
0.24460509419441223
0.22972264885902405
0.21025210618972778
0.18697234988212585
0.16084828972816467
0.1329234540462494
0.10419813543558121
0.075528584420681
0.04753818362951279
0.02056124061346054
-0.0053796544671058655
-0.030546702444553375
-0.05541711300611496
-0.0805613324046135
-0.10648352652788162
-0.1334499716758728
-0.1613239347934723
-0.18946680426597595
-0.2167368233203888
-0.24160102009773254
-0.2623562514781952
-0.277406245470047
-0.2855149805545807
-0.28599902987480164
-0.27879127860069275
-0.2644105553627014
-0.2438359260559082
-0.21834459900856018
-0.18934008479118347
-0.15819373726844788
-0.1261202096939087
-0.09409607201814651
-0.0628001019358635
-0.032615579664707184
-0.003645695745944977
0.024218283593654633
0.05120832473039627
0.07757533341646194
0.10348323732614517
0.12892591953277588
0.1536845564842224
0.17732542753219604
0.19924509525299072
0.21874728798866272
0.2351219356060028
0.2477198839187622
0.25600409507751465
0.2595894932746887
0.2582675516605377
0.25202035903930664
0.24102026224136353
0.2256011664867401
0.2062133252620697
0.1833638846874237
0.1575641930103302
0.12930509448051453
0.09905468672513962
0.06727182120084763
0.034431181848049164
0.0010371878743171692
-0.03236929327249527
-0.06521252542734146
-0.09689844399690628
-0.12683430314064026
-0.15445682406425476
-0.17926502227783203
-0.20084455609321594
-0.21889254450798035
-0.2332320511341095
-0.24380332231521606
-0.2506483495235443
-0.2538885772228241
-0.2536734938621521
-0.2501530349254608
-0.24344554543495178
-0.23361995816230774
-0.22068503499031067
-0.20459818840026855
-0.18527275323867798
-0.16259780526161194
-0.21522286534309387
-0.16833117604255676
-0.12035796791315079
-0.07221565395593643
-0.024625666439533234
0.021878980100154877
0.06692381948232651
0.1102609857916832
0.15172210335731506
0.1911619007587433
0.22839835286140442
0.2631470859050751
0.29497599601745605
0.32327741384506226
0.3472858965396881
0.36614319682121277
0.3789895474910736
0.3850919008255005
0.3839534521102905
0.3753965497016907
0.3595990538597107
0.337085098028183
0.3086681067943573
0.2753739058971405
0.2383459210395813
0.19874140620231628
0.1576361358165741
0.1159333661198616
0.07429226487874985
0.03309199959039688
-0.007574267685413361
-0.047851212322711945
-0.08802742511034012
-0.12839174270629883
-0.1690654754638672
-0.20984449982643127
-0.25007346272468567
-0.2886265814304352
-0.3239879906177521
-0.3544375002384186
-0.37830302119255066
-0.39420613646507263
-0.40125492215156555
-0.3991229236125946
-0.3880518078804016
-0.3687509000301361
-0.34227386116981506
-0.3098699450492859
-0.2728498876094818
-0.23247745633125305
-0.1898849904537201
-0.14601612091064453
-0.10159618407487869
-0.05713007599115372
-0.012927375733852386
0.030840687453746796
0.07406232506036758
0.11658775061368942
0.15814831852912903
0.19830277562141418
0.23642301559448242
0.2717374265193939
0.30340030789375305
0.3305731415748596
0.3524986803531647
0.36854442954063416
0.3782278299331665
0.3812160789966583
0.3773539066314697
0.36666855216026306
0.34939518570899963
0.3259827196598053
0.29705050587654114
0.26334020495414734
0.22564005851745605
0.1847221851348877
0.14130902290344238
0.09606971591711044
0.049629516899585724
0.0025955811142921448
-0.044423140585422516
-0.09080291539430618
-0.13589566946029663
-0.17903387546539307
-0.21953848004341125
-0.2567344605922699
-0.2899756133556366
-0.31866419315338135
-0.34228381514549255
-0.3604172468185425
-0.37276825308799744
-0.37916937470436096
-0.37957602739334106
-0.37406736612319946
-0.3628177046775818
-0.3460789620876312
-0.3241531550884247
-0.29736992716789246
-0.26605701446533203
-0.23052790760993958
-0.27597373723983765
-0.21966218948364258
-0.16148099303245544
-0.10228870064020157
-0.042777545750141144
0.01650383323431015
0.0751122459769249
0.13265901803970337
0.18874457478523254
0.24289587140083313
0.2945038080215454
0.34278616309165955
0.38677772879600525
0.42537087202072144
0.457396537065506
0.48174330592155457
0.4974841773509979
0.5039914846420288
0.5010064840316772
0.488659530878067
0.4674479365348816
0.43817153573036194
0.40185561776161194
0.3596600890159607
0.31280043721199036
0.2624610364437103
0.20972678065299988
0.1555103063583374
0.1005096361041069
0.04518025368452072
-0.010248668491840363
-0.06570818275213242
-0.12118155509233475
-0.17655590176582336
-0.2314683496952057
-0.28518328070640564
-0.33655038475990295
-0.38405290246009827
-0.4259701669216156
-0.460599809885025
-0.48648396134376526
-0.5025922656059265
-0.5084157586097717
-0.5039665699005127
-0.4897059500217438
-0.466431587934494
-0.4351569414138794
-0.396997332572937
-0.35308143496513367
-0.30449387431144714
-0.2522319555282593
-0.19718292355537415
-0.14011722803115845
-0.08169198781251907
-0.02247459441423416
0.037014953792095184
0.09624097496271133
0.15458783507347107
0.21130990982055664
0.2655179500579834
0.31620749831199646
0.3623274266719818
0.4028628170490265
0.4369145929813385
0.4637351334095001
0.4827571213245392
0.4935690462589264
0.49591219425201416
0.48967793583869934
0.47493258118629456
0.4519512355327606
0.4212363064289093
0.38352110981941223
0.3397192656993866
0.29084712266921997
0.2379409372806549
0.18198102712631226
0.12386208027601242
0.06439121812582016
0.004298485815525055