# vtk DataFile Version 3.0
2D PINN Solution
ASCII
DATASET STRUCTURED_GRID
DIMENSIONS 100 100 1
POINTS 10000 float
-1.0 -1.0 0.0
-0.9797979797979798 -1.0 0.0
-0.9595959595959596 -1.0 0.0
-0.9393939393939394 -1.0 0.0
-0.9191919191919192 -1.0 0.0
-0.898989898989899 -1.0 0.0
-0.8787878787878788 -1.0 0.0
-0.8585858585858586 -1.0 0.0
-0.8383838383838383 -1.0 0.0
-0.8181818181818181 -1.0 0.0
-0.797979797979798 -1.0 0.0
-0.7777777777777778 -1.0 0.0
-0.7575757575757576 -1.0 0.0
-0.7373737373737373 -1.0 0.0
-0.7171717171717171 -1.0 0.0
-0.696969696969697 -1.0 0.0
-0.6767676767676767 -1.0 0.0
-0.6565656565656566 -1.0 0.0
-0.6363636363636364 -1.0 0.0
-0.6161616161616161 -1.0 0.0
-0.5959595959595959 -1.0 0.0
-0.5757575757575757 -1.0 0.0
-0.5555555555555556 -1.0 0.0
-0.5353535353535352 -1.0 0.0
-0.5151515151515151 -1.0 0.0
-0.4949494949494949 -1.0 0.0
-0.4747474747474747 -1.0 0.0
-0.4545454545454545 -1.0 0.0
-0.43434343434343425 -1.0 0.0
-0.41414141414141414 -1.0 0.0
-0.3939393939393939 -1.0 0.0
-0.3737373737373737 -1.0 0.0
-0.3535353535353535 -1.0 0.0
-0.33333333333333326 -1.0 0.0
-0.31313131313131304 -1.0 0.0
-0.2929292929292928 -1.0 0.0
-0.2727272727272727 -1.0 0.0
-0.2525252525252525 -1.0 0.0
-0.23232323232323226 -1.0 0.0
-0.21212121212121204 -1.0 0.0
-0.19191919191919182 -1.0 0.0
-0.1717171717171716 -1.0 0.0
-0.1515151515151515 -1.0 0.0
-0.13131313131313127 -1.0 0.0
-0.11111111111111105 -1.0 0.0
-0.09090909090909083 -1.0 0.0
-0.07070707070707061 -1.0 0.0
-0.050505050505050386 -1.0 0.0
-0.030303030303030276 -1.0 0.0
-0.010101010101010055 -1.0 0.0
0.010101010101010166 -1.0 0.0
0.030303030303030498 -1.0 0.0
0.05050505050505061 -1.0 0.0
0.07070707070707072 -1.0 0.0
0.09090909090909105 -1.0 0.0
0.11111111111111116 -1.0 0.0
0.1313131313131315 -1.0 0.0
0.1515151515151516 -1.0 0.0
0.1717171717171717 -1.0 0.0
0.19191919191919204 -1.0 0.0
0.21212121212121215 -1.0 0.0
0.2323232323232325 -1.0 0.0
0.2525252525252526 -1.0 0.0
0.27272727272727293 -1.0 0.0
0.29292929292929304 -1.0 0.0
0.31313131313131315 -1.0 0.0
0.3333333333333335 -1.0 0.0
0.3535353535353536 -1.0 0.0
0.3737373737373739 -1.0 0.0
0.39393939393939403 -1.0 0.0
0.41414141414141437 -1.0 0.0
0.4343434343434345 -1.0 0.0
0.4545454545454546 -1.0 0.0
0.4747474747474749 -1.0 0.0
0.49494949494949503 -1.0 0.0
0.5151515151515154 -1.0 0.0
0.5353535353535355 -1.0 0.0
0.5555555555555556 -1.0 0.0
0.5757575757575759 -1.0 0.0
0.595959595959596 -1.0 0.0
0.6161616161616164 -1.0 0.0
0.6363636363636365 -1.0 0.0
0.6565656565656568 -1.0 0.0
0.6767676767676769 -1.0 0.0
0.696969696969697 -1.0 0.0
0.7171717171717173 -1.0 0.0
0.7373737373737375 -1.0 0.0
0.7575757575757578 -1.0 0.0
0.7777777777777779 -1.0 0.0
0.7979797979797982 -1.0 0.0
0.8181818181818183 -1.0 0.0
0.8383838383838385 -1.0 0.0
0.8585858585858588 -1.0 0.0
0.8787878787878789 -1.0 0.0
0.8989898989898992 -1.0 0.0
0.9191919191919193 -1.0 0.0
0.9393939393939394 -1.0 0.0
0.9595959595959598 -1.0 0.0
0.9797979797979799 -1.0 0.0
1.0 -1.0 0.0
-1.0 -0.9797979797979798 0.0
-0.9797979797979798 -0.9797979797979798 0.0
-0.9595959595959596 -0.9797979797979798 0.0
-0.9393939393939394 -0.9797979797979798 0.0
-0.9191919191919192 -0.9797979797979798 0.0
-0.898989898989899 -0.9797979797979798 0.0
-0.8787878787878788 -0.9797979797979798 0.0
-0.8585858585858586 -0.9797979797979798 0.0
-0.8383838383838383 -0.9797979797979798 0.0
-0.8181818181818181 -0.9797979797979798 0.0
-0.797979797979798 -0.9797979797979798 0.0
-0.7777777777777778 -0.9797979797979798 0.0
-0.7575757575757576 -0.9797979797979798 0.0
-0.7373737373737373 -0.9797979797979798 0.0
-0.7171717171717171 -0.9797979797979798 0.0
-0.696969696969697 -0.9797979797979798 0.0
-0.6767676767676767 -0.9797979797979798 0.0
-0.6565656565656566 -0.9797979797979798 0.0
-0.6363636363636364 -0.9797979797979798 0.0
-0.6161616161616161 -0.9797979797979798 0.0
-0.5959595959595959 -0.9797979797979798 0.0
-0.5757575757575757 -0.9797979797979798 0.0
-0.5555555555555556 -0.9797979797979798 0.0
-0.5353535353535352 -0.9797979797979798 0.0
-0.5151515151515151 -0.9797979797979798 0.0
-0.4949494949494949 -0.9797979797979798 0.0
-0.4747474747474747 -0.9797979797979798 0.0
-0.4545454545454545 -0.9797979797979798 0.0
-0.43434343434343425 -0.9797979797979798 0.0
-0.41414141414141414 -0.9797979797979798 0.0
-0.3939393939393939 -0.9797979797979798 0.0
-0.3737373737373737 -0.9797979797979798 0.0
-0.3535353535353535 -0.9797979797979798 0.0
-0.33333333333333326 -0.9797979797979798 0.0
-0.31313131313131304 -0.9797979797979798 0.0
-0.2929292929292928 -0.9797979797979798 0.0
-0.2727272727272727 -0.9797979797979798 0.0
-0.2525252525252525 -0.9797979797979798 0.0
-0.23232323232323226 -0.9797979797979798 0.0
-0.21212121212121204 -0.9797979797979798 0.0
-0.19191919191919182 -0.9797979797979798 0.0
-0.1717171717171716 -0.9797979797979798 0.0
-0.1515151515151515 -0.9797979797979798 0.0
-0.13131313131313127 -0.9797979797979798 0.0
-0.11111111111111105 -0.9797979797979798 0.0
-0.09090909090909083 -0.9797979797979798 0.0
-0.07070707070707061 -0.9797979797979798 0.0
-0.050505050505050386 -0.9797979797979798 0.0
-0.030303030303030276 -0.9797979797979798 0.0
-0.010101010101010055 -0.9797979797979798 0.0
0.010101010101010166 -0.9797979797979798 0.0
0.030303030303030498 -0.9797979797979798 0.0
0.05050505050505061 -0.9797979797979798 0.0
0.07070707070707072 -0.9797979797979798 0.0
0.09090909090909105 -0.9797979797979798 0.0
0.11111111111111116 -0.9797979797979798 0.0
0.1313131313131315 -0.9797979797979798 0.0
0.1515151515151516 -0.9797979797979798 0.0
0.1717171717171717 -0.9797979797979798 0.0
0.19191919191919204 -0.9797979797979798 0.0
0.21212121212121215 -0.9797979797979798 0.0
0.2323232323232325 -0.9797979797979798 0.0
0.2525252525252526 -0.9797979797979798 0.0
0.27272727272727293 -0.9797979797979798 0.0
0.29292929292929304 -0.9797979797979798 0.0
0.31313131313131315 -0.9797979797979798 0.0
0.3333333333333335 -0.9797979797979798 0.0
0.3535353535353536 -0.9797979797979798 0.0
0.3737373737373739 -0.9797979797979798 0.0
0.39393939393939403 -0.9797979797979798 0.0
0.41414141414141437 -0.9797979797979798 0.0
0.4343434343434345 -0.9797979797979798 0.0
0.4545454545454546 -0.9797979797979798 0.0
0.4747474747474749 -0.9797979797979798 0.0
0.49494949494949503 -0.9797979797979798 0.0
0.5151515151515154 -0.9797979797979798 0.0
0.5353535353535355 -0.9797979797979798 0.0
0.5555555555555556 -0.9797979797979798 0.0
0.5757575757575759 -0.9797979797979798 0.0
0.595959595959596 -0.9797979797979798 0.0
0.6161616161616164 -0.9797979797979798 0.0
0.6363636363636365 -0.9797979797979798 0.0
0.6565656565656568 -0.9797979797979798 0.0
0.6767676767676769 -0.9797979797979798 0.0
0.696969696969697 -0.9797979797979798 0.0
0.7171717171717173 -0.9797979797979798 0.0
0.7373737373737375 -0.9797979797979798 0.0
0.7575757575757578 -0.9797979797979798 0.0
0.7777777777777779 -0.9797979797979798 0.0
0.7979797979797982 -0.9797979797979798 0.0
0.8181818181818183 -0.9797979797979798 0.0
0.8383838383838385 -0.9797979797979798 0.0
0.8585858585858588 -0.9797979797979798 0.0
0.8787878787878789 -0.9797979797979798 0.0
0.8989898989898992 -0.9797979797979798 0.0
0.9191919191919193 -0.9797979797979798 0.0
0.9393939393939394 -0.9797979797979798 0.0
0.9595959595959598 -0.9797979797979798 0.0
0.9797979797979799 -0.9797979797979798 0.0
1.0 -0.9797979797979798 0.0
-1.0 -0.9595959595959596 0.0
-0.9797979797979798 -0.9595959595959596 0.0
-0.9595959595959596 -0.9595959595959596 0.0
-0.9393939393939394 -0.9595959595959596 0.0
-0.9191919191919192 -0.9595959595959596 0.0
-0.898989898989899 -0.9595959595959596 0.0
-0.8787878787878788 -0.9595959595959596 0.0
-0.8585858585858586 -0.9595959595959596 0.0
-0.8383838383838383 -0.9595959595959596 0.0
-0.8181818181818181 -0.9595959595959596 0.0
-0.797979797979798 -0.9595959595959596 0.0
-0.7777777777777778 -0.9595959595959596 0.0
-0.7575757575757576 -0.9595959595959596 0.0
-0.7373737373737373 -0.9595959595959596 0.0
-0.7171717171717171 -0.9595959595959596 0.0
-0.696969696969697 -0.9595959595959596 0.0
-0.6767676767676767 -0.9595959595959596 0.0
-0.6565656565656566 -0.9595959595959596 0.0
-0.6363636363636364 -0.9595959595959596 0.0
-0.6161616161616161 -0.9595959595959596 0.0
-0.5959595959595959 -0.9595959595959596 0.0
-0.5757575757575757 -0.9595959595959596 0.0
-0.5555555555555556 -0.9595959595959596 0.0
-0.5353535353535352 -0.9595959595959596 0.0
-0.5151515151515151 -0.9595959595959596 0.0
-0.4949494949494949 -0.9595959595959596 0.0
-0.4747474747474747 -0.9595959595959596 0.0
-0.4545454545454545 -0.9595959595959596 0.0
-0.43434343434343425 -0.9595959595959596 0.0
-0.41414141414141414 -0.9595959595959596 0.0
-0.3939393939393939 -0.9595959595959596 0.0
-0.3737373737373737 -0.9595959595959596 0.0
-0.3535353535353535 -0.9595959595959596 0.0
-0.33333333333333326 -0.9595959595959596 0.0
-0.31313131313131304 -0.9595959595959596 0.0
-0.2929292929292928 -0.9595959595959596 0.0
-0.2727272727272727 -0.9595959595959596 0.0
-0.2525252525252525 -0.9595959595959596 0.0
-0.23232323232323226 -0.9595959595959596 0.0
-0.21212121212121204 -0.9595959595959596 0.0
-0.19191919191919182 -0.9595959595959596 0.0
-0.1717171717171716 -0.9595959595959596 0.0
-0.1515151515151515 -0.9595959595959596 0.0
-0.13131313131313127 -0.9595959595959596 0.0
-0.11111111111111105 -0.9595959595959596 0.0
-0.09090909090909083 -0.9595959595959596 0.0
-0.07070707070707061 -0.9595959595959596 0.0
-0.050505050505050386 -0.9595959595959596 0.0
-0.030303030303030276 -0.9595959595959596 0.0
-0.010101010101010055 -0.9595959595959596 0.0
0.010101010101010166 -0.9595959595959596 0.0
0.030303030303030498 -0.9595959595959596 0.0
0.05050505050505061 -0.9595959595959596 0.0
0.07070707070707072 -0.9595959595959596 0.0
0.09090909090909105 -0.9595959595959596 0.0
0.11111111111111116 -0.9595959595959596 0.0
0.1313131313131315 -0.9595959595959596 0.0
0.1515151515151516 -0.9595959595959596 0.0
0.1717171717171717 -0.9595959595959596 0.0
0.19191919191919204 -0.9595959595959596 0.0
0.21212121212121215 -0.9595959595959596 0.0
[...]
POINT_DATA 10000
SCALARS u float 1
LOOKUP_TABLE default
0.5547776818275452
0.5950365662574768
0.6284987926483154
0.6546920537948608
0.6731866002082825
0.6835989952087402
0.6855778694152832
0.6788098216056824
0.6630226969718933
0.6379897594451904
0.6035488247871399
0.55962073802948
0.5062330961227417
0.44356781244277954
0.37199193239212036
0.29211294651031494
0.2048201560974121
0.11132719367742538
0.01318492740392685
-0.08772551268339157
-0.1892428696155548
-0.28901007771492004
-0.38460198044776917
-0.4736659824848175
-0.5540605187416077
-0.6239726543426514
-0.6819931864738464
-0.727135956287384
-0.758824348449707
-0.7768392562866211
-0.7812661528587341
-0.7724311947822571
-0.7508543729782104
-0.7172208428382874
-0.6723546385765076
-0.6172121167182922
-0.5528622269630432
-0.48047420382499695
-0.40129441022872925
-0.3166184723377228
-0.2277684509754181
-0.13607105612754822
-0.04285154491662979
0.050568945705890656
0.1428680121898651
0.2327219843864441
0.3188159465789795
0.39985743165016174
0.47461196780204773
0.5419287085533142
0.6007802486419678
0.6502752900123596
0.6896834969520569
0.7184327244758606
0.736103355884552
0.7424235343933105
0.7372588515281677
0.720610499382019
0.6926220655441284
0.6535866856575012
0.6039625406265259
0.5443874001502991
0.4756838381290436
0.39885231852531433
0.3150617778301239
0.22562214732170105
0.13195845484733582
0.03558807075023651
-0.06190330535173416
-0.15888503193855286
-0.2537068724632263
-0.3447287082672119
-0.43035411834716797
-0.5090674161911011
-0.5794649124145508
-0.6402953863143921
-0.6904835104942322
-0.7291563749313354
-0.7556641697883606
-0.769590437412262
-0.7707552909851074
-0.7592187523841858
-0.7352780699729919
-0.6994546055793762
-0.6524838805198669
-0.5952929854393005
-0.5289733409881592
-0.4547453224658966
-0.3739193081855774
-0.2878485321998596
-0.197891503572464
-0.10536981374025345
-0.011542685329914093
0.082412950694561
0.17540398240089417
0.2664249539375305
0.3545512855052948
0.4389314353466034
0.5187897682189941
0.5934223532676697
0.6038998961448669
0.6490290760993958
0.6871923804283142
0.717804491519928
0.7403199672698975
0.7542241811752319
0.7590277791023254
0.7542601227760315
0.7394757866859436
0.7142615914344788
0.6782572269439697
0.6311901807785034
0.5729221105575562
0.5035079121589661
0.4232775568962097
0.3329121172428131
0.23352676630020142
0.12671315670013428
0.014559470117092133
-0.10041523724794388
-0.21537402272224426
-0.32734182476997375
-0.433409720659256
-0.5309464335441589
-0.6177438497543335
-0.6921120882034302
-0.7528993487358093
-0.7994462847709656
-0.8315008282661438
-0.8491256833076477
-0.8526038527488708
-0.8423708081245422
-0.8189653754234314
-0.7830069661140442
-0.7351994514465332
-0.6763399839401245
-0.6073394417762756
-0.5292379260063171
-0.4432124197483063
-0.3505711257457733
-0.25273647904396057
-0.15122544765472412
-0.047618843615055084
0.056458182632923126
0.15936794877052307
0.25948116183280945
0.35521653294563293
0.44506868720054626
0.5276553630828857
0.6017420291900635
0.6662735342979431
0.7203767895698547
0.7633625268936157
0.7947039008140564
0.8140221238136292
0.8210617899894714
0.8156779408454895
0.7978301048278809
0.7675931453704834
0.7251769304275513
0.6709545850753784
0.6055054068565369
0.5296400189399719
0.4444253742694855
0.3511824905872345
0.2514632046222687
0.14700403809547424
0.03966902941465378
-0.06861317902803421
-0.1759105920791626
-0.28033602237701416
-0.3800930082798004
-0.473503440618515
-0.5590292811393738
-0.6352981925010681
-0.7011073231697083
-0.7554373145103455
-0.7974618673324585
-0.8265506029129028
-0.8422744870185852
-0.8444071412086487
-0.8329306840896606
-0.8080384135246277
-0.7701384425163269
-0.7198609709739685
-0.6580535769462585
-0.5857778787612915
-0.5042884349822998
-0.4150073826313019
-0.3194803297519684
-0.21933135390281677
-0.11620635539293289
-0.011728189885616302
0.09255745261907578
0.19520437717437744
0.2948968708515167
0.39046189188957214
0.48086994886398315
0.5652439594268799
0.6428545117378235
0.6445479989051819
0.6945310235023499
0.7374395728111267
0.7725702524185181
0.799251139163971
0.8168275952339172
0.8246550559997559
0.8220942616462708
0.8085078597068787
0.7832810282707214
0.7458426356315613
0.695717990398407
0.6326025128364563
0.556452214717865
0.46760621666908264
0.3669052720069885
0.25579580664634705
0.13638386130332947
0.01139802485704422
-0.1159282848238945
-0.2420978844165802
-0.36361604928970337
-0.47727975249290466
-0.5803977847099304
-0.6709160208702087
-0.7474474906921387
-0.809208333492279
-0.8559058904647827
-0.8876035809516907
-0.9045954346656799
-0.9073043465614319
-0.8962133526802063
-0.8718284964561462
-0.8346672058105469
-0.7852791547775269
-0.7242748737335205
-0.6523675322532654
-0.5704205632209778
-0.4794822037220001
-0.3808094263076782
-0.27586784958839417
-0.16631603240966797
-0.05396942049264908
0.0592549666762352
0.1713939905166626
0.2805079519748688
0.3847411870956421
0.48237717151641846
0.5718910694122314
0.6519755721092224
0.7215536236763
0.7797698378562927
0.8259701728820801
0.859666109085083
0.8805046677589417
0.8882330060005188
0.8826872706413269
0.8637838363647461
0.8315359354019165
0.7860855460166931
0.7277476191520691
0.6570679545402527
0.5748723149299622
0.4823094308376312
0.38085898756980896
0.2723064720630646
0.15868079662322998
0.04216188192367554
-0.07502306252717972
-0.19069281220436096
-0.3027830123901367
-0.4094013273715973
-0.5088436603546143
-0.5996030569076538
-0.6803678870201111
-0.7500123381614685
-0.8075888156890869
-0.8523237705230713
-0.8836094737052917
-0.9010067582130432
-0.90423983335495
-0.893206775188446
-0.8679882884025574
-0.8288597464561462
-0.776319146156311
-0.7110961675643921
-0.6341764330863953
-0.5467960834503174
-0.4504394233226776
-0.3468014895915985
-0.23774206638336182
-0.12521997094154358
-0.011219196021556854
0.10232887417078018
0.21360871195793152
0.3209780752658844
0.42300286889076233
0.5184783935546875
0.6064346432685852
0.68613201379776
0.6757623553276062
0.7304096817970276
0.7779346108436584
0.817503035068512
0.8483025431632996
0.8695264458656311
0.8803675174713135
0.8800013661384583
0.8675941228866577
0.8423202633857727
0.8034034371376038
0.7501823306083679
0.6822198033332825
0.5994345545768738
0.5022628307342529
0.39181753993034363
0.2700002193450928
0.13952875137329102
0.0038252100348472595
-0.13321369886398315
-0.26756104826927185
-0.39542433619499207
-0.5135505795478821
-0.6194218397140503
-0.7113084197044373
-0.7882096767425537
-0.84972083568573
-0.8958658576011658
-0.9269418120384216
-0.943385660648346
-0.9456802010536194
-0.934298038482666
-0.9096750617027283
-0.8722138404846191
-0.8223112225532532
-0.7604013085365295
-0.6870140433311462
-0.6028379797935486
-0.5087798237800598
-0.40601059794425964
-0.2959931790828705
-0.18047288060188293
-0.061436332762241364
0.05895441025495529
0.17846131324768066
0.29486730694770813
0.4060717225074768
0.5101714730262756
0.6055122017860413
0.6907148361206055
0.76467365026474
0.8265300989151001
0.8756391406059265
0.9115190505981445
0.9338088631629944
0.9422371983528137
0.9366035461425781
0.9167794585227966
0.8827301859855652
0.8345587849617004
0.7725675702095032
0.6973218321800232
0.6097181439399719
0.5110225081443787
0.4028889238834381
0.2873181402683258
0.16657382249832153
0.04307260364294052
-0.08075083047151566
-0.20255830883979797
-0.32018935680389404
-0.4317159652709961
-0.5354484915733337
-0.6299287676811218
-0.7139151096343994
-0.7863508462905884
-0.846351146697998
-0.8931861519813538
-0.9262633323669434
-0.9451317191123962
-0.9494704604148865
-0.9391002058982849
-0.91399747133255
-0.8743130564689636
-0.82040935754776
-0.7528879046440125
-0.6726323366165161
-0.5808258652687073
-0.47896555066108704
-0.36884549260139465
-0.25251486897468567
-0.1322009563446045
-0.010223843157291412
0.11112014204263687
0.22965401411056519
0.3434107005596161
0.45070087909698486
0.5501476526260376
0.6406975388526917
0.7216096520423889
0.6968290209770203
0.7557797431945801
0.8076080679893494
0.8513365387916565
0.8859995007514954
0.9106295704841614
0.9242390394210815
0.9258179664611816
0.9143332242965698
0.8887621760368347
0.8481484055519104
0.7916943430900574
0.7189067006111145
0.6297712922096252
0.5249499678611755
0.40595507621765137
0.275242418050766
0.13616791367530823
-0.007220067083835602
-0.1505385935306549
-0.28949278593063354
-0.420276015996933
-0.539838433265686
-0.6460040211677551
-0.7374365925788879
-0.813505232334137
-0.8741018176078796
-0.9194570779800415
-0.9499871134757996
-0.9661716818809509
-0.9684794545173645
-0.9573227763175964
-0.9330480694770813
-0.8959466814994812
-0.8462861776351929
-0.7843667268753052
-0.7105799317359924
-0.625481903553009
-0.5298678874969482
-0.42483219504356384
-0.311807245016098
-0.19257166981697083
-0.06920767575502396
0.055976785719394684
0.18056011199951172
0.3021366000175476
0.4184306561946869
0.527393102645874
0.6272627711296082
0.7165845036506653
0.7941992878913879
0.859207808971405
0.9109256267547607
0.9488288164138794
0.9725086688995361
0.9816422462463379
0.975975751876831
0.9553349614143372
0.9196601510047913
0.8690618276596069
0.8038882613182068
0.7247986197471619
0.6328284740447998
0.5294167399406433
0.4164002239704132
0.2959560453891754
0.17049884796142578
0.04255611449480057
-0.08536330610513687
-0.21088501811027527
-0.3318428099155426
-0.4463241398334503
-0.5526720881462097
-0.6494715809822083
-0.7355218529701233
-0.8098080158233643
-0.8714785575866699
-0.9198222756385803
-0.9542537331581116
-0.9743043780326843
-0.9796186089515686
-0.969958484172821
-0.9452189803123474
-0.9054558873176575
-0.8509160876274109
-0.782090425491333
-0.6997584700584412
-0.6050310730934143
-0.49938467144966125
-0.3846605718135834
-0.2630264163017273
-0.13691958785057068
-0.008926905691623688
0.11834215372800827
0.24239039421081543
0.36095669865608215
0.4721159040927887
0.5743260979652405
0.6664532423019409
0.7477555871009827
0.7072902321815491
0.770006000995636
0.8256338238716125
0.8730424642562866
0.9110997915267944
0.9386621713638306
0.9545590281486511
0.9575888514518738
0.9465382695198059
0.9202203750610352
0.8775562644004822
0.8177057504653931
0.7402434945106506
0.6453651785850525
0.5341050624847412
0.40848392248153687
0.2715427577495575
0.12719321250915527
-0.02010718733072281
-0.16578230261802673
-0.305602103471756
-0.4360274374485016
-0.5543920397758484
-0.6589307188987732
-0.7486664652824402
-0.8232321739196777
-0.8826842308044434
-0.9273274540901184
-0.957577645778656
-0.9738696217536926
-0.9765964150428772
-0.9660798907279968
-0.9425694346427917
-0.9062627553939819
-0.8573392629623413
-0.7960147261619568
-0.7226072549819946
-0.6376122236251831
-0.5417701601982117
-0.43613484501838684
-0.3221140205860138
-0.20147594809532166
-0.07631311565637589
0.05103834718465805
0.1781080961227417
0.3024251461029053
0.42164042592048645
0.5336288809776306
0.6365450024604797
0.7288483381271362
0.8092923760414124
0.8768864870071411
0.93084716796875
0.9705533385276794
0.9955022931098938
1.0052831172943115
0.9995786547660828
0.9781783819198608
0.941032886505127
0.8883123993873596
0.820487380027771
0.738395631313324
0.6432799696922302
0.5367929935455322
0.420951247215271
0.29804325103759766
0.1705210953950882
0.040876708924770355
-0.08845870941877365
-0.21520406007766724
-0.33727335929870605
-0.4528113901615143
-0.5601935386657715
-0.6580130457878113
-0.7450695633888245
-0.8203437328338623
-0.8829742670059204
-0.9322402477264404
-0.9675448536872864
-0.9884040951728821
-0.9944375157356262
-0.9853776097297668
-0.9610746502876282
-0.9215274453163147
-0.8669132590293884
-0.7976461052894592
-0.7144263386726379
-0.6182926893234253
-0.510677695274353
-0.39341455698013306
-0.26872798800468445
-0.1391671597957611
-0.007493011653423309
0.12345927208662033
0.2509527802467346
0.3724881708621979
0.48593661189079285
0.589611828327179
0.68229740858078
0.7632305026054382
0.706928551197052
0.7726929783821106
0.8314261436462402
0.8818303942680359
0.9225934743881226
0.952385425567627
0.9698519706726074
0.9736161828041077
0.9623140096664429
0.9346583485603333
0.8895498514175415
0.8262372612953186
0.7445234656333923
0.6449834704399109
0.5291531682014465
0.3996032476425171
0.2598782777786255
0.11422010511159897
-0.03281993418931961
-0.17684563994407654
-0.31400051712989807
-0.44121649861335754
-0.5562930703163147
-0.6578390002250671
-0.7451223731040955
-0.8178991079330444
-0.8762404918670654
-0.9203949570655823
-0.9506819844245911
-0.9674195647239685
-0.9708841443061829
-0.9612918496131897
-0.9388019442558289
-0.9035434126853943
-0.8556506037712097
-0.7953187227249146
-0.7228659987449646
-0.6387965679168701
-0.5438712239265442
-0.4391542971134186
-0.3260423541069031
-0.20626503229141235
-0.08184250444173813
0.044975899159908295
0.17181944847106934
0.296296089887619
0.4161027669906616
0.5291106104850769
0.633427619934082
0.7274209856987
0.8097197413444519
0.8791864514350891
0.9348840117454529
0.9760372638702393
1.002004861831665
1.0122662782669067
1.0064325332641602
0.9842828512191772
0.9458203315734863
0.8913487792015076
0.8215408325195312
0.7374811172485352
0.6406746506690979
0.5329968929290771
0.4166004955768585
0.2937985956668854
0.16695091128349304
0.038371771574020386
-0.08972736448049545
-0.21526670455932617
-0.3363155424594879
-0.4510997235774994
-0.5580143332481384
-0.6556296944618225
-0.7426925897598267
-0.8181248903274536
-0.8810113072395325
-0.9305917620658875
-0.9662404656410217
-0.9874580502510071
-0.9938575625419617
-0.9851691126823425
-0.9612433314323425
-0.9220722913742065
-0.8678197264671326
-0.7988690137863159
-0.7158785462379456
-0.6198385953903198
-0.5121200084686279
-0.39451339840888977
-0.26921796798706055
-0.13879504799842834
-0.00606701523065567
0.12603551149368286
0.25463464856147766
0.3770800232887268
0.49109354615211487
0.5948643684387207
0.6870879530906677
0.7669591307640076
0.6957539916038513
0.7636716961860657
0.8246230483055115
0.8771306872367859
0.9196938276290894
0.9507967829704285
0.9689071774482727
0.9725063443183899
0.960141122341156
0.930525004863739
0.8826729655265808
0.8160940408706665
0.7309978008270264
0.6284825205802917
0.5106422305107117
0.3805384337902069
0.24199649691581726
0.0992722138762474
-0.04337630420923233
-0.18205386400222778
-0.31350815296173096
-0.43523654341697693
-0.5454803705215454
-0.6431182622909546
-0.7275223135948181
-0.7984201312065125
-0.8557714223861694
-0.8996628522872925
-0.930239737033844
-0.9476575255393982
-0.9520513415336609
-0.9435272812843323
-0.9221736788749695
-0.8880836367607117
-0.841397225856781
-0.7823496460914612
-0.71132493019104
-0.6289151310920715
-0.5359598398208618
-0.4335765540599823
-0.3231641948223114
-0.20638373494148254
-0.08512138575315475
0.03857523947954178
0.16255450248718262
0.28463613986968994
0.4026733934879303
0.514617919921875
0.6185666918754578
0.712798535823822
0.7957918643951416
0.8662202954292297
0.9229430556297302
0.9649904370307922
0.9915508031845093
1.0019829273223877
0.9958392977714539
0.9729239344596863
0.9333569407463074
0.8776459097862244
0.8067336678504944
0.7220025658607483
0.6252270340919495
0.5184651613235474
0.40392160415649414
0.28382188081741333
0.16030830144882202
0.03540516644716263
-0.08899039775133133
-0.2110740840435028
-0.3291119933128357
-0.44143202900886536
-0.5464408993721008
-0.6426522135734558
-0.7287203073501587
-0.8034616112709045
-0.8658706545829773
-0.9151142835617065
-0.9505268931388855
-0.9715940356254578
-0.9779419302940369
-0.9693309664726257
-0.9456551671028137
-0.9069526791572571
-0.8534306287765503
-0.7854973077774048
-0.7038128972053528
-0.6093389987945557
-0.5033926367759705
-0.38768115639686584
-0.2643117606639862
-0.13575461506843567
-0.004760958254337311
0.12577304244041443
0.2529608905315399
0.3741045892238617
0.4868484139442444
0.5892872214317322
0.6800255179405212
0.7581817507743835
0.6739714741706848
0.7429729700088501
0.8050632476806641
0.858579695224762
0.9018347859382629
0.933134138584137
0.9508001208305359
0.9532286524772644
0.9389756321907043
0.9068854451179504
0.8562613725662231
0.7870507836341858
0.7000206112861633
0.5968633890151978
0.4801797866821289
0.35331687331199646
0.22007617354393005
0.08435305207967758
-0.050204046070575714
-0.18043678998947144
-0.30379346013069153
-0.41833046078681946
-0.5226393938064575
-0.6157405972480774
-0.696979820728302
-0.7659380435943604
-0.8223597407341003
-0.8660988807678223
-0.8970755934715271
-0.9152544140815735
-0.9206181168556213
-0.9131755232810974
-0.8929659724235535
-0.8600894212722778
-0.8147408366203308
-0.757253885269165
-0.6881439685821533
-0.6081428527832031
-0.5182107090950012
-0.4195367395877838
-0.3135145604610443
-0.2017057240009308
-0.08579566329717636
0.03243856877088547
0.15115785598754883
0.26848021149635315
0.38250061869621277
0.4913150668144226
0.5930542349815369
0.6859279274940491
0.768254816532135
0.838502824306488
0.8952991962432861
0.937457263469696
0.9639875292778015
0.9741366505622864
0.9674363732337952
0.9437689185142517
0.9034371972084045
0.8472169041633606
0.7763631343841553
0.6925560235977173
0.597786545753479
0.4941994249820709
0.38393494486808777
0.26900714635849
0.151251420378685
0.0323304608464241
-0.08620556443929672
-0.20285168290138245
-0.3160822093486786
-0.42433708906173706
-0.526034951210022
-0.6196223497390747
-0.7036404013633728
-0.7767760753631592
-0.8379033803939819
-0.8860986828804016
-0.9206451177597046
-0.9410197138786316
-0.9468780159950256
-0.9380437731742859
-0.9144938588142395
-0.8763633966445923
-0.8239481449127197
-0.7577328085899353
-0.6784155368804932
-0.5869589447975159
-0.4846237599849701
-0.37301167845726013
-0.2540777921676636
-0.13010475039482117
-0.0036562159657478333
0.12254349142313004
0.24573737382888794
0.3632950782775879
0.4728657603263855
0.57249516248703
0.6607006788253784
0.7364973425865173
0.641952633857727
0.7107996940612793
0.7727653384208679
0.8260083198547363
0.8686674237251282
0.8989008069038391
0.9149421453475952
0.9151954650878906
0.8983545899391174
0.8635640740394592
0.8105854392051697
0.7399560809135437
0.6530699133872986
0.5521648526191711
0.44015824794769287
0.32038751244544983
0.1962820589542389
0.07107483595609665
-0.05241081863641739
-0.17183634638786316
-0.285340815782547
-0.39145469665527344
-0.4890125095844269
-0.5770683884620667
-0.654840886592865
-0.7216846942901611
-0.777069628238678
-0.8205724954605103
-0.8518633246421814
-0.8707005977630615
-0.876924455165863
-0.8704611659049988
-0.8513355851173401
-0.8196976780891418
-0.7758500576019287
-0.720278799533844
-0.6536728739738464
-0.5769312977790833
-0.4911453425884247
-0.39756301045417786
-0.2975367307662964
-0.1924813687801361
-0.08383845537900925
0.026933632791042328
0.13834640383720398
0.24885430932044983
0.35683032870292664
0.4605572819709778
0.5582407712936401
0.6480464935302734
0.7281622290611267
0.7968524098396301
0.8525226712226868
0.8937763571739197
0.9194689989089966
0.9287759065628052
0.9212608933448792
0.8969535827636719
0.8564033508300781
0.8006893992424011
0.731370747089386
0.6503598093986511
0.559751570224762
0.4616366922855377
0.3579537272453308
0.25040900707244873
0.1404755860567093
0.029449693858623505
-0.08145157247781754
-0.19099119305610657
-0.29784077405929565
-0.4005451500415802
-0.4975474178791046
-0.5872432589530945
-0.6680679321289062
-0.7385794520378113
-0.7975253462791443
-0.8438876867294312
-0.8768961429595947
-0.8960275650024414
-0.9009857773780823
-0.891681432723999
-0.8682100772857666
-0.8308351635932922
-0.7799800634384155
-0.7162342071533203
-0.6403650641441345
-0.5533472299575806
-0.4563901722431183
-0.3509693741798401
-0.23883837461471558
-0.12202567607164383
-0.0028010085225105286
0.11640114337205887
0.23307546973228455
0.344777375459671
0.44925281405448914
0.5445546507835388
0.6291322112083435
0.7018784880638123
0.6002029776573181
0.6675011515617371
0.7279096841812134
0.7794341444969177
0.8200727701187134
0.847896158695221
0.8611437678337097
0.8583552241325378
0.8385233879089355
0.8012580275535583
0.7469248175621033
0.6767123341560364
0.5925911664962769
0.49715545773506165
0.3933519423007965
0.2841726243495941