# vtk DataFile Version 3.0
2D PINN Solution
ASCII
DATASET STRUCTURED_GRID
DIMENSIONS 100 100 1
POINTS 10000 float
-1.0 -1.0 0.0
-0.9797979797979798 -1.0 0.0
-0.9595959595959596 -1.0 0.0
-0.9393939393939394 -1.0 0.0
-0.9191919191919192 -1.0 0.0
-0.898989898989899 -1.0 0.0
-0.8787878787878788 -1.0 0.0
-0.8585858585858586 -1.0 0.0
-0.8383838383838383 -1.0 0.0
-0.8181818181818181 -1.0 0.0
-0.797979797979798 -1.0 0.0
-0.7777777777777778 -1.0 0.0
-0.7575757575757576 -1.0 0.0
-0.7373737373737373 -1.0 0.0
-0.7171717171717171 -1.0 0.0
-0.696969696969697 -1.0 0.0
-0.6767676767676767 -1.0 0.0
-0.6565656565656566 -1.0 0.0
-0.6363636363636364 -1.0 0.0
-0.6161616161616161 -1.0 0.0
-0.5959595959595959 -1.0 0.0
-0.5757575757575757 -1.0 0.0
-0.5555555555555556 -1.0 0.0
-0.5353535353535352 -1.0 0.0
-0.5151515151515151 -1.0 0.0
-0.4949494949494949 -1.0 0.0
-0.4747474747474747 -1.0 0.0
-0.4545454545454545 -1.0 0.0
-0.43434343434343425 -1.0 0.0
-0.41414141414141414 -1.0 0.0
-0.3939393939393939 -1.0 0.0
-0.3737373737373737 -1.0 0.0
-0.3535353535353535 -1.0 0.0
-0.33333333333333326 -1.0 0.0
-0.31313131313131304 -1.0 0.0
-0.2929292929292928 -1.0 0.0
-0.2727272727272727 -1.0 0.0
-0.2525252525252525 -1.0 0.0
-0.23232323232323226 -1.0 0.0
-0.21212121212121204 -1.0 0.0
-0.19191919191919182 -1.0 0.0
-0.1717171717171716 -1.0 0.0
-0.1515151515151515 -1.0 0.0
-0.13131313131313127 -1.0 0.0
-0.11111111111111105 -1.0 0.0
-0.09090909090909083 -1.0 0.0
-0.07070707070707061 -1.0 0.0
-0.050505050505050386 -1.0 0.0
-0.030303030303030276 -1.0 0.0
-0.010101010101010055 -1.0 0.0
0.010101010101010166 -1.0 0.0
0.030303030303030498 -1.0 0.0
0.05050505050505061 -1.0 0.0
0.07070707070707072 -1.0 0.0
0.09090909090909105 -1.0 0.0
0.11111111111111116 -1.0 0.0
0.1313131313131315 -1.0 0.0
0.1515151515151516 -1.0 0.0
0.1717171717171717 -1.0 0.0
0.19191919191919204 -1.0 0.0
0.21212121212121215 -1.0 0.0
0.2323232323232325 -1.0 0.0
0.2525252525252526 -1.0 0.0
0.27272727272727293 -1.0 0.0
0.29292929292929304 -1.0 0.0
0.31313131313131315 -1.0 0.0
0.3333333333333335 -1.0 0.0
0.3535353535353536 -1.0 0.0
0.3737373737373739 -1.0 0.0
0.39393939393939403 -1.0 0.0
0.41414141414141437 -1.0 0.0
0.4343434343434345 -1.0 0.0
0.4545454545454546 -1.0 0.0
0.4747474747474749 -1.0 0.0
0.49494949494949503 -1.0 0.0
0.5151515151515154 -1.0 0.0
0.5353535353535355 -1.0 0.0
0.5555555555555556 -1.0 0.0
0.5757575757575759 -1.0 0.0
0.595959595959596 -1.0 0.0
0.6161616161616164 -1.0 0.0
0.6363636363636365 -1.0 0.0
0.6565656565656568 -1.0 0.0
0.6767676767676769 -1.0 0.0
0.696969696969697 -1.0 0.0
0.7171717171717173 -1.0 0.0
0.7373737373737375 -1.0 0.0
0.7575757575757578 -1.0 0.0
0.7777777777777779 -1.0 0.0
0.7979797979797982 -1.0 0.0
0.8181818181818183 -1.0 0.0
0.8383838383838385 -1.0 0.0
0.8585858585858588 -1.0 0.0
0.8787878787878789 -1.0 0.0
0.8989898989898992 -1.0 0.0
0.9191919191919193 -1.0 0.0
0.9393939393939394 -1.0 0.0
0.9595959595959598 -1.0 0.0
0.9797979797979799 -1.0 0.0
1.0 -1.0 0.0
-1.0 -0.9797979797979798 0.0
-0.9797979797979798 -0.9797979797979798 0.0
-0.9595959595959596 -0.9797979797979798 0.0
-0.9393939393939394 -0.9797979797979798 0.0
-0.9191919191919192 -0.9797979797979798 0.0
-0.898989898989899 -0.9797979797979798 0.0
-0.8787878787878788 -0.9797979797979798 0.0
-0.8585858585858586 -0.9797979797979798 0.0
-0.8383838383838383 -0.9797979797979798 0.0
-0.8181818181818181 -0.9797979797979798 0.0
-0.797979797979798 -0.9797979797979798 0.0
-0.7777777777777778 -0.9797979797979798 0.0
-0.7575757575757576 -0.9797979797979798 0.0
-0.7373737373737373 -0.9797979797979798 0.0
-0.7171717171717171 -0.9797979797979798 0.0
-0.696969696969697 -0.9797979797979798 0.0
-0.6767676767676767 -0.9797979797979798 0.0
-0.6565656565656566 -0.9797979797979798 0.0
-0.6363636363636364 -0.9797979797979798 0.0
-0.6161616161616161 -0.9797979797979798 0.0
-0.5959595959595959 -0.9797979797979798 0.0
-0.5757575757575757 -0.9797979797979798 0.0
-0.5555555555555556 -0.9797979797979798 0.0
-0.5353535353535352 -0.9797979797979798 0.0
-0.5151515151515151 -0.9797979797979798 0.0
-0.4949494949494949 -0.9797979797979798 0.0
-0.4747474747474747 -0.9797979797979798 0.0
-0.4545454545454545 -0.9797979797979798 0.0
-0.43434343434343425 -0.9797979797979798 0.0
-0.41414141414141414 -0.9797979797979798 0.0
-0.3939393939393939 -0.9797979797979798 0.0
-0.3737373737373737 -0.9797979797979798 0.0
-0.3535353535353535 -0.9797979797979798 0.0
-0.33333333333333326 -0.9797979797979798 0.0
-0.31313131313131304 -0.9797979797979798 0.0
-0.2929292929292928 -0.9797979797979798 0.0
-0.2727272727272727 -0.9797979797979798 0.0
-0.2525252525252525 -0.9797979797979798 0.0
-0.23232323232323226 -0.9797979797979798 0.0
-0.21212121212121204 -0.9797979797979798 0.0
-0.19191919191919182 -0.9797979797979798 0.0
-0.1717171717171716 -0.9797979797979798 0.0
-0.1515151515151515 -0.9797979797979798 0.0
-0.13131313131313127 -0.9797979797979798 0.0
-0.11111111111111105 -0.9797979797979798 0.0
-0.09090909090909083 -0.9797979797979798 0.0
-0.07070707070707061 -0.9797979797979798 0.0
-0.050505050505050386 -0.9797979797979798 0.0
-0.030303030303030276 -0.9797979797979798 0.0
-0.010101010101010055 -0.9797979797979798 0.0
0.010101010101010166 -0.9797979797979798 0.0
0.030303030303030498 -0.9797979797979798 0.0
0.05050505050505061 -0.9797979797979798 0.0
0.07070707070707072 -0.9797979797979798 0.0
0.09090909090909105 -0.9797979797979798 0.0
0.11111111111111116 -0.9797979797979798 0.0
0.1313131313131315 -0.9797979797979798 0.0
0.1515151515151516 -0.9797979797979798 0.0
0.1717171717171717 -0.9797979797979798 0.0
0.19191919191919204 -0.9797979797979798 0.0
0.21212121212121215 -0.9797979797979798 0.0
0.2323232323232325 -0.9797979797979798 0.0
0.2525252525252526 -0.9797979797979798 0.0
0.27272727272727293 -0.9797979797979798 0.0
0.29292929292929304 -0.9797979797979798 0.0
0.31313131313131315 -0.9797979797979798 0.0
0.3333333333333335 -0.9797979797979798 0.0
0.3535353535353536 -0.9797979797979798 0.0
0.3737373737373739 -0.9797979797979798 0.0
0.39393939393939403 -0.9797979797979798 0.0
0.41414141414141437 -0.9797979797979798 0.0
0.4343434343434345 -0.9797979797979798 0.0
0.4545454545454546 -0.9797979797979798 0.0
0.4747474747474749 -0.9797979797979798 0.0
0.49494949494949503 -0.9797979797979798 0.0
0.5151515151515154 -0.9797979797979798 0.0
0.5353535353535355 -0.9797979797979798 0.0
0.5555555555555556 -0.9797979797979798 0.0
0.5757575757575759 -0.9797979797979798 0.0
0.595959595959596 -0.9797979797979798 0.0
0.6161616161616164 -0.9797979797979798 0.0
0.6363636363636365 -0.9797979797979798 0.0
0.6565656565656568 -0.9797979797979798 0.0
0.6767676767676769 -0.9797979797979798 0.0
0.696969696969697 -0.9797979797979798 0.0
0.7171717171717173 -0.9797979797979798 0.0
0.7373737373737375 -0.9797979797979798 0.0
0.7575757575757578 -0.9797979797979798 0.0
0.7777777777777779 -0.9797979797979798 0.0
0.7979797979797982 -0.9797979797979798 0.0
0.8181818181818183 -0.9797979797979798 0.0
0.8383838383838385 -0.9797979797979798 0.0
0.8585858585858588 -0.9797979797979798 0.0
0.8787878787878789 -0.9797979797979798 0.0
0.8989898989898992 -0.9797979797979798 0.0
0.9191919191919193 -0.9797979797979798 0.0
0.9393939393939394 -0.9797979797979798 0.0
0.9595959595959598 -0.9797979797979798 0.0
0.9797979797979799 -0.9797979797979798 0.0
1.0 -0.9797979797979798 0.0
-1.0 -0.9595959595959596 0.0
-0.9797979797979798 -0.9595959595959596 0.0
-0.9595959595959596 -0.9595959595959596 0.0
-0.9393939393939394 -0.9595959595959596 0.0
-0.9191919191919192 -0.9595959595959596 0.0
-0.898989898989899 -0.9595959595959596 0.0
-0.8787878787878788 -0.9595959595959596 0.0
-0.8585858585858586 -0.9595959595959596 0.0
-0.8383838383838383 -0.9595959595959596 0.0
-0.8181818181818181 -0.9595959595959596 0.0
-0.797979797979798 -0.9595959595959596 0.0
-0.7777777777777778 -0.9595959595959596 0.0
-0.7575757575757576 -0.9595959595959596 0.0
-0.7373737373737373 -0.9595959595959596 0.0
-0.7171717171717171 -0.9595959595959596 0.0
-0.696969696969697 -0.9595959595959596 0.0
-0.6767676767676767 -0.9595959595959596 0.0
-0.6565656565656566 -0.9595959595959596 0.0
-0.6363636363636364 -0.9595959595959596 0.0
-0.6161616161616161 -0.9595959595959596 0.0
-0.5959595959595959 -0.9595959595959596 0.0
-0.5757575757575757 -0.9595959595959596 0.0
-0.5555555555555556 -0.9595959595959596 0.0
-0.5353535353535352 -0.9595959595959596 0.0
-0.5151515151515151 -0.9595959595959596 0.0
-0.4949494949494949 -0.9595959595959596 0.0
-0.4747474747474747 -0.9595959595959596 0.0
-0.4545454545454545 -0.9595959595959596 0.0
-0.43434343434343425 -0.9595959595959596 0.0
-0.41414141414141414 -0.9595959595959596 0.0
-0.3939393939393939 -0.9595959595959596 0.0
-0.3737373737373737 -0.9595959595959596 0.0
-0.3535353535353535 -0.9595959595959596 0.0
-0.33333333333333326 -0.9595959595959596 0.0
-0.31313131313131304 -0.9595959595959596 0.0
-0.2929292929292928 -0.9595959595959596 0.0
-0.2727272727272727 -0.9595959595959596 0.0
-0.2525252525252525 -0.9595959595959596 0.0
-0.23232323232323226 -0.9595959595959596 0.0
-0.21212121212121204 -0.9595959595959596 0.0
-0.19191919191919182 -0.9595959595959596 0.0
-0.1717171717171716 -0.9595959595959596 0.0
-0.1515151515151515 -0.9595959595959596 0.0
-0.13131313131313127 -0.9595959595959596 0.0
-0.11111111111111105 -0.9595959595959596 0.0
-0.09090909090909083 -0.9595959595959596 0.0
-0.07070707070707061 -0.9595959595959596 0.0
-0.050505050505050386 -0.9595959595959596 0.0
-0.030303030303030276 -0.9595959595959596 0.0
-0.010101010101010055 -0.9595959595959596 0.0
0.010101010101010166 -0.9595959595959596 0.0
0.030303030303030498 -0.9595959595959596 0.0
0.05050505050505061 -0.9595959595959596 0.0
0.07070707070707072 -0.9595959595959596 0.0
0.09090909090909105 -0.9595959595959596 0.0
0.11111111111111116 -0.9595959595959596 0.0
0.1313131313131315 -0.9595959595959596 0.0
0.1515151515151516 -0.9595959595959596 0.0
0.1717171717171717 -0.9595959595959596 0.0
0.19191919191919204 -0.9595959595959596 0.0
0.21212121212121215 -0.9595959595959596 0.0
[...]
POINT_DATA 10000
SCALARS u float 1
LOOKUP_TABLE default
0.11285325139760971
0.07921921461820602
0.044374994933605194
0.007783971726894379
-0.030893273651599884
-0.07169682532548904
-0.11430368572473526
-0.15800008177757263
-0.2017044723033905
-0.24403157830238342
-0.28341004252433777
-0.31822365522384644
-0.3469814658164978
-0.3684646487236023
-0.3818586766719818
-0.38682976365089417
-0.38353583216667175
-0.37258055806159973
-0.3549107611179352
-0.33166268467903137
-0.3040013015270233
-0.27297067642211914
-0.23938807845115662
-0.2037900984287262
-0.16645202040672302
-0.12744417786598206
-0.08673443645238876
-0.04429120570421219
-0.00018727034330368042
0.045311339199543
0.09169595688581467
0.13818028569221497
0.18371036648750305
0.2270042598247528
0.26663264632225037
0.30113351345062256
0.3291661739349365
0.3496858775615692
0.3621008098125458
0.3663887679576874
0.3631003797054291
0.3532572090625763
0.33813250064849854
0.3189834654331207
0.2968149185180664
0.2722357213497162
0.24543607234954834
0.21628445386886597
0.18448036909103394
0.1497175097465515
0.11182709783315659
0.07086559385061264
0.02715113013982773
-0.01873347908258438
-0.0659714862704277
-0.11355661600828171
-0.16034790873527527
-0.2051336169242859
-0.24670347571372986
-0.2839185893535614
-0.3157833218574524
-0.34150272607803345
-0.36052265763282776
-0.3725426495075226
-0.37750229239463806
-0.3755548298358917
-0.3670239746570587
-0.35237371921539307
-0.33216992020606995
-0.3070598244667053
-0.27773919701576233
-0.24492758512496948
-0.20932355523109436
-0.1715710461139679
-0.13222306966781616
-0.09171540290117264
-0.05037335306406021
-0.008425243198871613
0.03395526856184006
0.07657649368047714
0.11916791647672653
0.1613081395626068
0.2023809254169464
0.24156630039215088
0.27786269783973694
0.31016480922698975
0.3373582065105438
0.35843363404273987
0.3725863993167877
0.3793046176433563
0.3784158229827881
0.370105117559433
0.35490429401397705
0.3336564302444458
0.3074614703655243
0.2776167392730713
0.24554118514060974
0.21270862221717834
0.1805761158466339
0.1505257487297058
0.07552420347929001
0.057540975511074066
0.03795766085386276
0.01613076776266098
-0.008342303335666656
-0.035550959408283234
-0.06522733718156815
-0.09672833234071732
-0.12905612587928772
-0.16092190146446228
-0.19086000323295593
-0.2173772156238556
-0.23911574482917786
-0.2550175189971924
-0.26445069909095764
-0.2672748863697052
-0.26383501291275024
-0.25487104058265686
-0.24138149619102478
-0.22444137930870056
-0.20503994822502136
-0.18393933773040771
-0.16161298751831055
-0.13823822140693665
-0.11375167220830917
-0.08794821053743362
-0.06059030443429947
-0.03151918202638626
-0.0007481649518013
0.03146705776453018
0.06459646672010422
0.09783410280942917
0.13012894988059998
0.16026517748832703
0.18696653842926025
0.2090456485748291
0.22556129097938538
0.23598355054855347
0.2403011918067932
0.23905253410339355
0.23323097825050354
0.22408899664878845
0.2128649652004242
0.20052891969680786
0.18761005997657776
0.17414912581443787
0.15977510809898376
0.14386451244354248
0.12573036551475525
0.10479583591222763
0.08072168380022049
0.05347096174955368
0.023328997194767
-0.00912647694349289
-0.04307592660188675
-0.07752633839845657
-0.11138797551393509
-0.1435558795928955
-0.17299014329910278
-0.19878876209259033
-0.2202516496181488
-0.23690712451934814
-0.24852168560028076
-0.2550717294216156
-0.25669875741004944
-0.2536552846431732
-0.24626928567886353
-0.23492088913917542
-0.22003522515296936
-0.20208892226219177
-0.1816006898880005
-0.15911337733268738
-0.13515561819076538
-0.11020383983850479
-0.08463690429925919
-0.058712370693683624
-0.03255332261323929
-0.00616975873708725
0.020503900945186615
0.04754754155874252
0.07498355954885483
0.10270348936319351
0.13041004538536072
0.15758022665977478
0.18347403407096863
0.20717647671699524
0.22768518328666687
0.24401608109474182
0.25531888008117676
0.26097753643989563
0.26068922877311707
0.25450003147125244
0.2428097128868103
0.2263454794883728
0.20610004663467407
0.1832709014415741
0.15916836261749268
0.13514697551727295
0.11252843588590622
0.09254246205091476
0.037965647876262665
0.03480451554059982
0.029808931052684784
0.022311590611934662
0.011899434030056
-0.0015375986695289612
-0.01778174191713333
-0.036274053156375885
-0.056144632399082184
-0.07627356797456741
-0.09539929777383804
-0.11226538568735123
-0.1257776916027069
-0.135159432888031
-0.14005234837532043
-0.14056280255317688
-0.13721299171447754
-0.1308208405971527
-0.12233290821313858
-0.1126408651471138
-0.10243406146764755
-0.09210773557424545
-0.08173993974924088
-0.07113534957170486
-0.05991784483194351
-0.04764389246702194
-0.03392008692026138
-0.018507935106754303
-0.0014008954167366028
0.017128609120845795
0.0365181639790535
0.05594044178724289
0.07437390834093094
0.09070975333452225
0.10389240831136703
0.11308480054140091
0.11783098429441452
0.11817561835050583
0.11470722407102585
0.10847724229097366
0.10081803053617477
0.09306589514017105
0.0862869843840599
0.08107086271047592
0.07744727283716202
0.07493487745523453
0.07269018143415451
0.06970670074224472
0.06501195579767227
0.0578320249915123
0.04769646376371384
0.034490473568439484
0.01844944804906845
0.00011504441499710083
-0.01973370462656021
-0.040169186890125275
-0.060207270085811615
-0.07890517264604568
-0.09544580429792404
-0.10920897871255875
-0.11981265991926193
-0.12713012099266052
-0.13124391436576843
-0.13240092992782593
-0.1309264898300171
-0.12716248631477356
-0.12141994386911392
-0.11397559195756912
-0.10508439689874649
-0.09500888735055923
-0.08403778821229935
-0.07248816639184952
-0.06067553907632828
-0.04888016730546951
-0.03729613870382309
-0.026007764041423798
-0.014969505369663239
-0.004018910229206085
0.0070899054408073425
0.01863626390695572
0.03087102621793747
0.04394059628248215
0.05783049017190933
0.07231593877077103
0.08694852143526077
0.10107728093862534
0.1139044389128685
0.12458374351263046
0.13232168555259705
0.13649016618728638
0.1367102861404419
0.13291096687316895
0.12534818053245544
0.11458352953195572
0.10144061595201492
0.08692768961191177
0.07216649502515793
0.05830816179513931
0.04646790772676468
0.03766893595457077
-0.0002551749348640442
0.01053842157125473
0.019470684230327606
0.02589806169271469
0.029423318803310394
0.029927663505077362
0.027576617896556854
0.02281980961561203
0.01635395735502243
0.009057871997356415
0.0018922314047813416
-0.004236526787281036
-0.00861445814371109
-0.010841436684131622
-0.010901369154453278
-0.009155668318271637
-0.006261564791202545
-0.003024972975254059
-0.0002238824963569641
0.0015409216284751892
0.001959376037120819
0.0010515674948692322
-0.0008614584803581238
-0.0032405629754066467
-0.005440793931484222
-0.006828509271144867
-0.006901688873767853
-0.005376212298870087
-0.0022442862391471863
0.00219697505235672
0.007364191114902496
0.012445680797100067
0.016498811542987823
0.018593497574329376
0.017978884279727936
0.014250822365283966
0.007490299642086029
-0.0016776099801063538
-0.012134425342082977
-0.022439517080783844
-0.03110068291425705
-0.03685983270406723
-0.03893221169710159
-0.03714049607515335
-0.0319017693400383
-0.024109981954097748
-0.01494511216878891
-0.005668438971042633
0.0025681331753730774
0.008862696588039398
0.012649409472942352
0.01373320072889328
0.012272529304027557
0.008726872503757477
0.0037706419825553894
-0.0018047317862510681
-0.0071975067257881165
-0.011698998510837555
-0.014775626361370087
-0.016132324934005737
-0.015724867582321167
-0.013747557997703552
-0.010565392673015594
-0.006639473140239716
-0.002433396875858307
0.0016543790698051453
0.0053358301520347595
0.008438222110271454
0.01087895780801773
0.012620709836483002
0.013629667460918427
0.013853348791599274
0.013225488364696503
0.011697761714458466
0.009271778166294098
0.00603630393743515
0.002184443175792694
-0.001989491283893585
-0.0061096325516700745
-0.009756185114383698
-0.01251714676618576
-0.014048941433429718
-0.014128215610980988
-0.012702815234661102
-0.009921915829181671
-0.006128378212451935
-0.0018335804343223572
0.002351142466068268
0.005799628794193268
0.007965095341205597
0.00847085565328598
0.007164515554904938
0.004157789051532745
-0.0001844540238380432
-0.00527866929769516
-0.010377071797847748
-0.014637045562267303
-0.017188049852848053
-0.017188139259815216
-0.01387130469083786
-0.03941700607538223
-0.015502013266086578
0.006755821406841278
0.02675386518239975
0.044121287763118744
0.058724336326122284
0.07065954059362411
0.08023055642843246
0.08790784329175949
0.09425904601812363
0.09985192865133286
0.10514574497938156
0.1103883907198906
0.11554240435361862
0.12027128785848618
0.123991958796978
0.12599489092826843
0.1255916953086853
0.12226777523756027
0.11579006165266037
0.10626008361577988
0.0940999910235405
0.07998856157064438
0.06475164741277695
0.049246884882450104
0.03424195200204849
0.020315490663051605
0.007779084146022797
-0.0033606961369514465
-0.013402797281742096
-0.022912941873073578
-0.032626740634441376
-0.043324388563632965
-0.05566252022981644
-0.06999816745519638
-0.08623718470335007
-0.10375308245420456
-0.12140599638223648
-0.13768860697746277
-0.1509714424610138
-0.1597946584224701
-0.16312500834465027
-0.16052642464637756
-0.15219810605049133
-0.13889867067337036
-0.121788389980793
-0.10223200172185898
-0.08160874992609024
-0.06115209311246872
-0.04182630032300949
-0.0242704376578331
-0.008765734732151031
0.004734911024570465
0.016548044979572296
0.027170412242412567
0.03717093914747238
0.04708240181207657
0.057298801839351654
0.06800395995378494
0.07914154976606369
0.09042007476091385
0.10136672109365463
0.11140375584363937
0.11993452161550522
0.1264229118824005
0.13045546412467957
0.13177841901779175
0.13030612468719482
0.12610089778900146
0.11932995170354843
0.11021330207586288
0.09897985309362411
0.08584368973970413
0.07101228088140488
0.05470653623342514
0.03719141334295273
0.018797241151332855
-7.440894842147827e-05
-0.01895499974489212
-0.03733516484498978
-0.05469305068254471
-0.07054046541452408
-0.08446510881185532
-0.0961727574467659
-0.10551945120096207
-0.11252468079328537
-0.11736498028039932
-0.12034108489751816
-0.12181798368692398
-0.1221674308180809
-0.12168920785188675
-0.12056077271699905
-0.11880149692296982
-0.11626111716032028
-0.1126418188214302
-0.10752186924219131
-0.10041037946939468
-0.0907861515879631
-0.07813835889101028
-0.06200442463159561
-0.07957959920167923
-0.04330799728631973
-0.00825614482164383
0.025016389787197113
0.0561503991484642
0.08497544378042221
0.11148133128881454
0.13578316569328308
0.15806397795677185
0.17850151658058167
0.1971985399723053
0.21410033106803894
0.2289470136165619
0.24126076698303223
0.25039756298065186
0.25563982129096985
0.25632724165916443
0.25198620557785034
0.2424321174621582
0.22781896591186523
0.20863276720046997
0.1856440305709839
0.1598082184791565
0.13216203451156616
0.10370644181966782
0.07529845088720322
0.04756674915552139
0.020850621163845062
-0.004820026457309723
-0.029702790081501007
-0.054272957146167755
-0.07910362631082535
-0.10470844060182571
-0.13136619329452515
-0.15896248817443848
-0.18687963485717773
-0.21399441361427307
-0.23879018425941467
-0.25956448912620544
-0.2747139036655426
-0.2829889953136444
-0.28368517756462097
-0.2767162024974823
-0.2625843286514282
-0.2422558069229126
-0.21700435876846313
-0.1882302463054657
-0.15730974078178406
-0.12546443939208984
-0.0936727300286293
-0.06262274831533432
-0.03269848972558975
-0.004008747637271881
0.023557700216770172
0.050236545503139496
0.0762859359383583
0.10188061743974686
0.12702518701553345
0.15151271224021912
0.1749206781387329
0.19665566086769104
0.2160247266292572
0.23232287168502808
0.24490001797676086
0.25321754813194275
0.2568899989128113
0.2557050585746765
0.2496417760848999
0.2388659417629242
0.22370803356170654
0.20461103320121765
0.18207496404647827
0.15660637617111206
0.12868812680244446
0.09878277033567429
0.06734337657690048
0.034838609397411346
0.0017678812146186829
-0.03132957965135574
-0.06388268619775772
-0.09530007094144821
-0.12498984485864639
-0.15239378809928894
-0.1770099699497223
-0.19842958450317383
-0.21635231375694275
-0.23060446977615356
-0.24113142490386963
-0.24798133969306946
-0.2512730658054352
-0.25116077065467834
-0.2477942705154419
-0.24129065871238708
-0.23171183466911316
-0.2190609872341156
-0.2032879889011383
-0.184297114610672
-0.16196778416633606
-0.13616949319839478
-0.10677649825811386
-0.12055245786905289
-0.07261348515748978
-0.025230474770069122
0.021058104932308197
0.06587644666433334
0.10897507518529892
0.1501861810684204
0.18937230110168457
0.22635996341705322
0.2608766257762909
0.2925044894218445
0.3206535279750824
0.3445711135864258
0.3634064495563507
0.37630587816238403
0.38253054022789
0.3815755546092987
0.3732485771179199
0.35771575570106506
0.33548447489738464
0.3073555529117584
0.27434980869293213
0.23760423064231873
0.19827455282211304
0.1574365496635437
0.11599802225828171
0.07462269812822342
0.03369378298521042
-0.006689406931400299
-0.04667133837938309
-0.08654076606035233
-0.12659630179405212
-0.16697219014167786
-0.207480788230896
-0.2474879026412964
-0.28588828444480896
-0.32117751240730286
-0.3516404330730438
-0.3756013810634613
-0.39166709780693054
-0.39892518520355225
-0.39703169465065
-0.38620927929878235
-0.36715731024742126
-0.3409236967563629
-0.30875417590141296
-0.2719641625881195
-0.23182126879692078
-0.18946319818496704
-0.14584046602249146
-0.10168155282735825
-0.05749363452196121
-0.013584993779659271
0.029876969754695892
0.07278496772050858
0.11499982327222824
0.1562652587890625
0.19615104794502258
0.23403984308242798
0.26916980743408203
0.3006984293460846
0.32779258489608765
0.3496931791305542
0.3657694160938263
0.3755326569080353
0.3786534368991852
0.3749695122241974
0.36450526118278503
0.34749218821525574
0.3243696391582489
0.2957509458065033
0.262372225522995
0.225011944770813
0.18443873524665833
0.14136675000190735
0.09646164625883102
0.05034450441598892
0.0036179646849632263
-0.04311151057481766
-0.0892210379242897
-0.1340683400630951
-0.17698559165000916
-0.2172972857952118
-0.2543316185474396
-0.28744348883628845
-0.31604108214378357
-0.33961185812950134
-0.35774144530296326
-0.3701381981372833
-0.37663498520851135
-0.37719038128852844
-0.37187886238098145
-0.3608706295490265
-0.3444141745567322
-0.3228020966053009
-0.2963560223579407
-0.2653937041759491
-0.23022052645683289
-0.19111144542694092
-0.14830836653709412
-0.16188445687294006
-0.10290084034204483
-0.04360736161470413
0.015446685254573822
0.07381664961576462
0.13111600279808044
0.18695113062858582
0.24085694551467896
0.2922390401363373
0.34032782912254333
0.38417425751686096
0.4226836860179901
0.45469436049461365
0.47909843921661377
0.4949655830860138
0.501658022403717
0.4989028573036194
0.4868166744709015
0.46588441729545593
0.4368932247161865
0.4008616805076599
0.358945369720459
0.31235846877098083
0.2622877061367035
0.20981955528259277
0.15587225556373596
0.10114588588476181
0.04609996825456619
-0.009035922586917877
-0.06419337540864944
-0.11936379224061966
-0.17444628477096558
-0.22909456491470337
-0.28259405493736267
-0.3338094651699066
-0.38124024868011475
-0.42316934466362
-0.45789089798927307
-0.4839337170124054
-0.5002503395080566
-0.5063117146492004
-0.5021122097969055
-0.48810216784477234
-0.4650733768939972
-0.4340359568595886
-0.39610806107521057
-0.3524235785007477
-0.3040730655193329
-0.25205790996551514
-0.19727039337158203
-0.1404818892478943
-0.08235026150941849
-0.023437194526195526
0.03574293106794357
0.0946638360619545
0.15272042155265808
0.2091791331768036
0.26315969228744507
0.31366798281669617
0.3596564829349518
0.4001152813434601
0.43413978815078735
0.46098792552948
0.48008641600608826
0.49102160334587097
0.4935349225997925
0.48751428723335266
0.4730227291584015
0.4503260850906372
0.4199237823486328
0.38253912329673767
0.3390791416168213
0.2905522286891937
0.23798692226409912
0.18236124515533447
0.12456565350294113
0.06540071219205856
0.005597881972789764
-0.0541544184088707
-0.11317349225282669
-0.17076179385185242
-0.22618642449378967
-0.2786717116832733
-0.32740095257759094
-0.3715304434299469
-0.4102121889591217
-0.4426322877407074
-0.4680538475513458
-0.48586001992225647
-0.4956013262271881
-0.49702712893486023
-0.4901029169559479
-0.47501125931739807
-0.45213595032691956
-0.4220169186592102
-0.38530969619750977
-0.34272655844688416
-0.2949887812137604
-0.2427840530872345
-0.18673831224441528
-0.20286765694618225
-0.1334221065044403
-0.06263328343629837
0.008887432515621185
0.0805656835436821
0.15179851651191711
0.22188547253608704
0.2899649739265442
0.3549673855304718
0.41561630368232727
0.47047048807144165
0.5180215239524841
0.5568334460258484
0.5856907367706299
0.6037241220474243
0.6104883551597595
0.605983316898346
0.590614378452301
0.5651142001152039
0.530457615852356
0.48776447772979736
0.4382220506668091
0.38301947712898254
0.32329505681991577
0.2600858807563782
0.19429653882980347
0.12666833400726318
0.05777987092733383
-0.011923082172870636
-0.08205648511648178
-0.1521872878074646
-0.22170522809028625
-0.28971239924430847
-0.35496529936790466
-0.41590777039527893
-0.4707958400249481
-0.5178925395011902
-0.5556765198707581
-0.5830143094062805
-0.5992528796195984
-0.6042285561561584
-0.5982017517089844
-0.5817517042160034
-0.5556660294532776
-0.5208314061164856
-0.47816362977027893
-0.42856431007385254
-0.37290069460868835
-0.31201669573783875
-0.24673837423324585
-0.17789489030838013
-0.10632648319005966
-0.03290436416864395
0.04144691675901413
0.11572102457284927
0.18880748748779297
0.2594885230064392
0.3264705240726471
0.38844409584999084
0.4441666305065155
0.4925391972064972
0.5326589941978455
0.5638312697410583
0.5855588316917419
0.5975075364112854
0.5994810461997986
0.5914197564125061
0.5734164118766785
0.5457608103752136
0.5089733004570007
0.4638272821903229
0.41132500767707825
0.3526360094547272
0.2889997661113739
0.2216353416442871
0.15167033672332764
0.08011379092931747
0.007861368358135223
-0.06427741795778275
-0.1355310082435608
-0.20512905716896057
-0.2722594738006592
-0.33605384826660156
-0.39556482434272766
-0.4497833549976349
-0.4976527988910675
-0.5381160378456116
-0.5701713562011719
-0.5929367542266846
-0.6057208180427551
-0.60807865858078
-0.5998620390892029
-0.5812292695045471
-0.5526384711265564
-0.5148094296455383
-0.46866169571876526
-0.41524145007133484
-0.355644553899765
-0.29095056653022766
-0.2221682369709015
-0.24256038665771484
-0.16323068737983704
-0.08141032606363297
0.002166561782360077
0.08671625703573227
0.17133665084838867
0.25494101643562317
0.3362102210521698
0.4135853350162506
0.4853171110153198
0.5495681166648865
0.6045569777488708
0.6487377285957336
0.6809352040290833
0.7004503607749939
0.7070810198783875
0.701087236404419
0.6831008791923523
0.6540224552154541
0.6149037480354309
0.5668685436248779
0.5110382437705994
0.4484993815422058
0.3802732825279236
0.307309091091156
0.2304791808128357
0.15058237314224243
0.06837233155965805
-0.015403307974338531
-0.0999305322766304
-0.18424558639526367
-0.26715153455734253
-0.34718284010887146
-0.42263349890708923
-0.491659551858902
-0.5524569153785706
-0.6034406423568726
-0.6434052586555481
-0.6716046929359436
-0.6877609491348267
-0.6920013427734375
-0.6847533583641052
-0.6666328310966492
-0.6383348107337952
-0.6005662679672241
-0.5540034770965576
-0.49929049611091614
-0.4370698034763336
-0.36802569031715393
-0.29293927550315857
-0.21272212266921997
-0.12844160199165344
-0.041326917707920074
0.047240354120731354
0.13574564456939697
0.22257056832313538
0.3060556948184967
0.3845602571964264
0.4565597176551819
0.5207071304321289
0.5758926868438721
0.6212544441223145
0.6561649441719055
0.6801975965499878
0.6930782198905945
0.6946679949760437
0.6849494576454163
0.6640477776527405
0.6322664618492126
0.5901281237602234
0.5384061932563782
0.47812995314598083
0.4105387032032013
0.33700987696647644
0.25895458459854126
0.17772969603538513
0.09457162767648697
0.010581858456134796
-0.07325493544340134
-0.15603110194206238