# vtk DataFile Version 3.0
2D PINN Solution
ASCII
DATASET STRUCTURED_GRID
DIMENSIONS 100 100 1
POINTS 10000 float
-1.0 -1.0 0.0
-0.9797979797979798 -1.0 0.0
-0.9595959595959596 -1.0 0.0
-0.9393939393939394 -1.0 0.0
-0.9191919191919192 -1.0 0.0
-0.898989898989899 -1.0 0.0
-0.8787878787878788 -1.0 0.0
-0.8585858585858586 -1.0 0.0
-0.8383838383838383 -1.0 0.0
-0.8181818181818181 -1.0 0.0
-0.797979797979798 -1.0 0.0
-0.7777777777777778 -1.0 0.0
-0.7575757575757576 -1.0 0.0
-0.7373737373737373 -1.0 0.0
-0.7171717171717171 -1.0 0.0
-0.696969696969697 -1.0 0.0
-0.6767676767676767 -1.0 0.0
-0.6565656565656566 -1.0 0.0
-0.6363636363636364 -1.0 0.0
-0.6161616161616161 -1.0 0.0
-0.5959595959595959 -1.0 0.0
-0.5757575757575757 -1.0 0.0
-0.5555555555555556 -1.0 0.0
-0.5353535353535352 -1.0 0.0
-0.5151515151515151 -1.0 0.0
-0.4949494949494949 -1.0 0.0
-0.4747474747474747 -1.0 0.0
-0.4545454545454545 -1.0 0.0
-0.43434343434343425 -1.0 0.0
-0.41414141414141414 -1.0 0.0
-0.3939393939393939 -1.0 0.0
-0.3737373737373737 -1.0 0.0
-0.3535353535353535 -1.0 0.0
-0.33333333333333326 -1.0 0.0
-0.31313131313131304 -1.0 0.0
-0.2929292929292928 -1.0 0.0
-0.2727272727272727 -1.0 0.0
-0.2525252525252525 -1.0 0.0
-0.23232323232323226 -1.0 0.0
-0.21212121212121204 -1.0 0.0
-0.19191919191919182 -1.0 0.0
-0.1717171717171716 -1.0 0.0
-0.1515151515151515 -1.0 0.0
-0.13131313131313127 -1.0 0.0
-0.11111111111111105 -1.0 0.0
-0.09090909090909083 -1.0 0.0
-0.07070707070707061 -1.0 0.0
-0.050505050505050386 -1.0 0.0
-0.030303030303030276 -1.0 0.0
-0.010101010101010055 -1.0 0.0
0.010101010101010166 -1.0 0.0
0.030303030303030498 -1.0 0.0
0.05050505050505061 -1.0 0.0
0.07070707070707072 -1.0 0.0
0.09090909090909105 -1.0 0.0
0.11111111111111116 -1.0 0.0
0.1313131313131315 -1.0 0.0
0.1515151515151516 -1.0 0.0
0.1717171717171717 -1.0 0.0
0.19191919191919204 -1.0 0.0
0.21212121212121215 -1.0 0.0
0.2323232323232325 -1.0 0.0
0.2525252525252526 -1.0 0.0
0.27272727272727293 -1.0 0.0
0.29292929292929304 -1.0 0.0
0.31313131313131315 -1.0 0.0
0.3333333333333335 -1.0 0.0
0.3535353535353536 -1.0 0.0
0.3737373737373739 -1.0 0.0
0.39393939393939403 -1.0 0.0
0.41414141414141437 -1.0 0.0
0.4343434343434345 -1.0 0.0
0.4545454545454546 -1.0 0.0
0.4747474747474749 -1.0 0.0
0.49494949494949503 -1.0 0.0
0.5151515151515154 -1.0 0.0
0.5353535353535355 -1.0 0.0
0.5555555555555556 -1.0 0.0
0.5757575757575759 -1.0 0.0
0.595959595959596 -1.0 0.0
0.6161616161616164 -1.0 0.0
0.6363636363636365 -1.0 0.0
0.6565656565656568 -1.0 0.0
0.6767676767676769 -1.0 0.0
0.696969696969697 -1.0 0.0
0.7171717171717173 -1.0 0.0
0.7373737373737375 -1.0 0.0
0.7575757575757578 -1.0 0.0
0.7777777777777779 -1.0 0.0
0.7979797979797982 -1.0 0.0
0.8181818181818183 -1.0 0.0
0.8383838383838385 -1.0 0.0
0.8585858585858588 -1.0 0.0
0.8787878787878789 -1.0 0.0
0.8989898989898992 -1.0 0.0
0.9191919191919193 -1.0 0.0
0.9393939393939394 -1.0 0.0
0.9595959595959598 -1.0 0.0
0.9797979797979799 -1.0 0.0
1.0 -1.0 0.0
-1.0 -0.9797979797979798 0.0
-0.9797979797979798 -0.9797979797979798 0.0
-0.9595959595959596 -0.9797979797979798 0.0
-0.9393939393939394 -0.9797979797979798 0.0
-0.9191919191919192 -0.9797979797979798 0.0
-0.898989898989899 -0.9797979797979798 0.0
-0.8787878787878788 -0.9797979797979798 0.0
-0.8585858585858586 -0.9797979797979798 0.0
-0.8383838383838383 -0.9797979797979798 0.0
-0.8181818181818181 -0.9797979797979798 0.0
-0.797979797979798 -0.9797979797979798 0.0
-0.7777777777777778 -0.9797979797979798 0.0
-0.7575757575757576 -0.9797979797979798 0.0
-0.7373737373737373 -0.9797979797979798 0.0
-0.7171717171717171 -0.9797979797979798 0.0
-0.696969696969697 -0.9797979797979798 0.0
-0.6767676767676767 -0.9797979797979798 0.0
-0.6565656565656566 -0.9797979797979798 0.0
-0.6363636363636364 -0.9797979797979798 0.0
-0.6161616161616161 -0.9797979797979798 0.0
-0.5959595959595959 -0.9797979797979798 0.0
-0.5757575757575757 -0.9797979797979798 0.0
-0.5555555555555556 -0.9797979797979798 0.0
-0.5353535353535352 -0.9797979797979798 0.0
-0.5151515151515151 -0.9797979797979798 0.0
-0.4949494949494949 -0.9797979797979798 0.0
-0.4747474747474747 -0.9797979797979798 0.0
-0.4545454545454545 -0.9797979797979798 0.0
-0.43434343434343425 -0.9797979797979798 0.0
-0.41414141414141414 -0.9797979797979798 0.0
-0.3939393939393939 -0.9797979797979798 0.0
-0.3737373737373737 -0.9797979797979798 0.0
-0.3535353535353535 -0.9797979797979798 0.0
-0.33333333333333326 -0.9797979797979798 0.0
-0.31313131313131304 -0.9797979797979798 0.0
-0.2929292929292928 -0.9797979797979798 0.0
-0.2727272727272727 -0.9797979797979798 0.0
-0.2525252525252525 -0.9797979797979798 0.0
-0.23232323232323226 -0.9797979797979798 0.0
-0.21212121212121204 -0.9797979797979798 0.0
-0.19191919191919182 -0.9797979797979798 0.0
-0.1717171717171716 -0.9797979797979798 0.0
-0.1515151515151515 -0.9797979797979798 0.0
-0.13131313131313127 -0.9797979797979798 0.0
-0.11111111111111105 -0.9797979797979798 0.0
-0.09090909090909083 -0.9797979797979798 0.0
-0.07070707070707061 -0.9797979797979798 0.0
-0.050505050505050386 -0.9797979797979798 0.0
-0.030303030303030276 -0.9797979797979798 0.0
-0.010101010101010055 -0.9797979797979798 0.0
0.010101010101010166 -0.9797979797979798 0.0
0.030303030303030498 -0.9797979797979798 0.0
0.05050505050505061 -0.9797979797979798 0.0
0.07070707070707072 -0.9797979797979798 0.0
0.09090909090909105 -0.9797979797979798 0.0
0.11111111111111116 -0.9797979797979798 0.0
0.1313131313131315 -0.9797979797979798 0.0
0.1515151515151516 -0.9797979797979798 0.0
0.1717171717171717 -0.9797979797979798 0.0
0.19191919191919204 -0.9797979797979798 0.0
0.21212121212121215 -0.9797979797979798 0.0
0.2323232323232325 -0.9797979797979798 0.0
0.2525252525252526 -0.9797979797979798 0.0
0.27272727272727293 -0.9797979797979798 0.0
0.29292929292929304 -0.9797979797979798 0.0
0.31313131313131315 -0.9797979797979798 0.0
0.3333333333333335 -0.9797979797979798 0.0
0.3535353535353536 -0.9797979797979798 0.0
0.3737373737373739 -0.9797979797979798 0.0
0.39393939393939403 -0.9797979797979798 0.0
0.41414141414141437 -0.9797979797979798 0.0
0.4343434343434345 -0.9797979797979798 0.0
0.4545454545454546 -0.9797979797979798 0.0
0.4747474747474749 -0.9797979797979798 0.0
0.49494949494949503 -0.9797979797979798 0.0
0.5151515151515154 -0.9797979797979798 0.0
0.5353535353535355 -0.9797979797979798 0.0
0.5555555555555556 -0.9797979797979798 0.0
0.5757575757575759 -0.9797979797979798 0.0
0.595959595959596 -0.9797979797979798 0.0
0.6161616161616164 -0.9797979797979798 0.0
0.6363636363636365 -0.9797979797979798 0.0
0.6565656565656568 -0.9797979797979798 0.0
0.6767676767676769 -0.9797979797979798 0.0
0.696969696969697 -0.9797979797979798 0.0
0.7171717171717173 -0.9797979797979798 0.0
0.7373737373737375 -0.9797979797979798 0.0
0.7575757575757578 -0.9797979797979798 0.0
0.7777777777777779 -0.9797979797979798 0.0
0.7979797979797982 -0.9797979797979798 0.0
0.8181818181818183 -0.9797979797979798 0.0
0.8383838383838385 -0.9797979797979798 0.0
0.8585858585858588 -0.9797979797979798 0.0
0.8787878787878789 -0.9797979797979798 0.0
0.8989898989898992 -0.9797979797979798 0.0
0.9191919191919193 -0.9797979797979798 0.0
0.9393939393939394 -0.9797979797979798 0.0
0.9595959595959598 -0.9797979797979798 0.0
0.9797979797979799 -0.9797979797979798 0.0
1.0 -0.9797979797979798 0.0
-1.0 -0.9595959595959596 0.0
-0.9797979797979798 -0.9595959595959596 0.0
-0.9595959595959596 -0.9595959595959596 0.0
-0.9393939393939394 -0.9595959595959596 0.0
-0.9191919191919192 -0.9595959595959596 0.0
-0.898989898989899 -0.9595959595959596 0.0
-0.8787878787878788 -0.9595959595959596 0.0
-0.8585858585858586 -0.9595959595959596 0.0
-0.8383838383838383 -0.9595959595959596 0.0
-0.8181818181818181 -0.9595959595959596 0.0
-0.797979797979798 -0.9595959595959596 0.0
-0.7777777777777778 -0.9595959595959596 0.0
-0.7575757575757576 -0.9595959595959596 0.0
-0.7373737373737373 -0.9595959595959596 0.0
-0.7171717171717171 -0.9595959595959596 0.0
-0.696969696969697 -0.9595959595959596 0.0
-0.6767676767676767 -0.9595959595959596 0.0
-0.6565656565656566 -0.9595959595959596 0.0
-0.6363636363636364 -0.9595959595959596 0.0
-0.6161616161616161 -0.9595959595959596 0.0
-0.5959595959595959 -0.9595959595959596 0.0
-0.5757575757575757 -0.9595959595959596 0.0
-0.5555555555555556 -0.9595959595959596 0.0
-0.5353535353535352 -0.9595959595959596 0.0
-0.5151515151515151 -0.9595959595959596 0.0
-0.4949494949494949 -0.9595959595959596 0.0
-0.4747474747474747 -0.9595959595959596 0.0
-0.4545454545454545 -0.9595959595959596 0.0
-0.43434343434343425 -0.9595959595959596 0.0
-0.41414141414141414 -0.9595959595959596 0.0
-0.3939393939393939 -0.9595959595959596 0.0
-0.3737373737373737 -0.9595959595959596 0.0
-0.3535353535353535 -0.9595959595959596 0.0
-0.33333333333333326 -0.9595959595959596 0.0
-0.31313131313131304 -0.9595959595959596 0.0
-0.2929292929292928 -0.9595959595959596 0.0
-0.2727272727272727 -0.9595959595959596 0.0
-0.2525252525252525 -0.9595959595959596 0.0
-0.23232323232323226 -0.9595959595959596 0.0
-0.21212121212121204 -0.9595959595959596 0.0
-0.19191919191919182 -0.9595959595959596 0.0
-0.1717171717171716 -0.9595959595959596 0.0
-0.1515151515151515 -0.9595959595959596 0.0
-0.13131313131313127 -0.9595959595959596 0.0
-0.11111111111111105 -0.9595959595959596 0.0
-0.09090909090909083 -0.9595959595959596 0.0
-0.07070707070707061 -0.9595959595959596 0.0
-0.050505050505050386 -0.9595959595959596 0.0
-0.030303030303030276 -0.9595959595959596 0.0
-0.010101010101010055 -0.9595959595959596 0.0
0.010101010101010166 -0.9595959595959596 0.0
0.030303030303030498 -0.9595959595959596 0.0
0.05050505050505061 -0.9595959595959596 0.0
0.07070707070707072 -0.9595959595959596 0.0
0.09090909090909105 -0.9595959595959596 0.0
0.11111111111111116 -0.9595959595959596 0.0
0.1313131313131315 -0.9595959595959596 0.0
0.1515151515151516 -0.9595959595959596 0.0
0.1717171717171717 -0.9595959595959596 0.0
0.19191919191919204 -0.9595959595959596 0.0
0.21212121212121215 -0.9595959595959596 0.0
[...]
POINT_DATA 10000
SCALARS u float 1
LOOKUP_TABLE default
0.457460880279541
0.4991486668586731
0.5346959233283997
0.5636757016181946
0.5857169032096863
0.6005004048347473
0.6077536940574646
0.6072555780410767
0.5988298058509827
0.5823559761047363
0.5577732920646667
0.5250868797302246
0.48438578844070435
0.43585261702537537
0.379784494638443
0.3166083097457886
0.2469107210636139
0.17144939303398132
0.09117493778467178
0.0072480663657188416
-0.07895808666944504
-0.16586777567863464
-0.2517261207103729
-0.3346603214740753
-0.4127468168735504
-0.4841180145740509
-0.5470512509346008
-0.6000697612762451
-0.642004132270813
-0.672032356262207
-0.6896867156028748
-0.6948410868644714
-0.6876758933067322
-0.6686422824859619
-0.6384254097938538
-0.5979043245315552
-0.5481070876121521
-0.49017658829689026
-0.4253147542476654
-0.3547477126121521
-0.279683917760849
-0.20129132270812988
-0.12068826705217361
-0.03895207494497299
0.04286549240350723
0.12371765822172165
0.2025417685508728
0.278258353471756
0.3497709035873413
0.4159903824329376
0.47586312890052795
0.5284032225608826
0.5727257132530212
0.6080766916275024
0.6338463425636292
0.6495859026908875
0.655007004737854
0.6499906182289124
0.6345805525779724
0.6089909672737122
0.573603093624115
0.5289611220359802
0.4757612347602844
0.4148316979408264
0.347104549407959
0.2735941708087921
0.19537249207496643
0.11356896907091141
0.029363788664340973
-0.055993013083934784
-0.14118432998657227
-0.2248254120349884
-0.3054843842983246
-0.3817068636417389
-0.45205917954444885
-0.5151763558387756
-0.5698059797286987
-0.6148605346679688
-0.6494541168212891
-0.672933042049408
-0.6848989129066467
-0.6852161884307861
-0.6740084290504456
-0.6516470313072205
-0.6187275052070618
-0.5760399699211121
-0.5245366096496582
-0.46527621150016785
-0.39938652515411377
-0.32802343368530273
-0.252316951751709
-0.1733505129814148
-0.09213041514158249
-0.009583152830600739
0.07344739884138107
0.15618231892585754
0.23789048194885254
0.31787803769111633
0.3954603970050812
0.4699701964855194
0.5089511871337891
0.5555094480514526
0.5957894921302795
0.6292636394500732
0.6554583311080933
0.6739460825920105
0.684339165687561
0.6862866282463074
0.6794764399528503
0.6636309027671814
0.6385250687599182
0.6039944291114807
0.5599578022956848
0.5064445734024048
0.44363337755203247
0.3718939423561096
0.29183611273765564
0.2043551206588745
0.11066751927137375
0.012332700192928314
-0.08875895291566849
-0.19043365120887756
-0.29033032059669495
-0.3860153257846832
-0.47513219714164734
-0.5555380582809448
-0.6254233717918396
-0.683381974697113
-0.7284340262413025
-0.7600077986717224
-0.7778931260108948
-0.7821770310401917
-0.7731920480728149
-0.751459538936615
-0.7176677584648132
-0.6726440787315369
-0.6173425316810608
-0.5528353452682495
-0.480292946100235
-0.4009631872177124
-0.31614506244659424
-0.22715970873832703
-0.1353393793106079
-0.0420093759894371
0.05150609463453293
0.14388304948806763
0.2337948977947235
0.3199261724948883
0.4009862244129181
0.47573885321617126
0.5430354475975037
0.6018486618995667
0.6512919068336487
0.6906360983848572
0.7193098068237305
0.7368956208229065
0.7431221008300781
0.7378560900688171
0.7211005091667175
0.692997395992279
0.6538395881652832
0.6040871739387512
0.5443776845932007
0.4755341112613678
0.3985602855682373
0.3146267533302307
0.22504520416259766
0.1312447488307953
0.034747958183288574
-0.06285824626684189
-0.15993759036064148
-0.25483807921409607
-0.3459157347679138
-0.43157508969306946
-0.5102971792221069
-0.5806804895401001
-0.6414733529090881
-0.6916030049324036
-0.7301979064941406
-0.7566114664077759
-0.7704266905784607
-0.7714684009552002
-0.7597988843917847
-0.7357161045074463
-0.6997446417808533
-0.6526206731796265
-0.5952754616737366
-0.5288001298904419
-0.45441916584968567
-0.3734426200389862
-0.2872280478477478
-0.19713515043258667
-0.10448785871267319
-0.01054779440164566
0.08350587636232376
0.17657727003097534
0.267659068107605
0.3558235466480255
0.44022059440612793
0.5200701951980591
0.5530883073806763
0.6045817136764526
0.6497324109077454
0.6879067420959473
0.7185191512107849
0.7410256266593933
0.7549092173576355
0.7596789002418518
0.7548632025718689
0.7400142550468445
0.7147180438041687
0.6786137223243713
0.6314252018928528
0.5730140209197998
0.5034368634223938
0.42302510142326355
0.3324647545814514
0.23287498950958252
0.12585946917533875
0.013514675199985504
-0.10162978619337082
-0.21672400832176208
-0.3287852108478546
-0.4349066913127899
-0.5324487090110779
-0.6192097067832947
-0.6935072541236877
-0.7541958689689636
-0.8006215691566467
-0.8325403332710266
-0.8500209450721741
-0.8533496260643005
-0.8429652452468872
-0.8194064497947693
-0.7832953929901123
-0.7353347539901733
-0.6763226389884949
-0.6071699857711792
-0.5289196372032166
-0.44274768233299255
-0.3499658405780792
-0.25199899077415466
-0.1503666639328003
-0.04665423184633255
0.057512469589710236
0.16049149632453918
0.26065292954444885
0.35641369223594666
0.44627073407173157
0.5288386940956116
0.6028897166252136
0.6673687100410461
0.7214052677154541
0.7643119692802429
0.7955651879310608
0.8147869110107422
0.8217216730117798
0.8162267804145813
0.7982602119445801
0.7678983807563782
0.7253493666648865
0.6709886193275452
0.6053952574729919
0.5293817520141602
0.44401735067367554
0.35062721371650696
0.25076529383659363
0.14617234468460083
0.03871799260377884
-0.06966821104288101
-0.17704778909683228
-0.2815355956554413
-0.38133057951927185
-0.47475478053092957
-0.5602725148200989
-0.6365106105804443
-0.7022674679756165
-0.7565248012542725
-0.7984600067138672
-0.8274437189102173
-0.8430476784706116
-0.8450497388839722
-0.8334313035011292
-0.8083891868591309
-0.7703338265419006
-0.7198948860168457
-0.6579241752624512
-0.5854851603507996
-0.503833532333374
-0.4143964946269989
-0.3187194764614105
-0.21843209862709045
-0.11518452316522598
-0.010598339140415192
0.0937732681632042
0.19648489356040955
0.2962172329425812
0.3917982876300812
0.482195645570755
0.5665345191955566
0.5888379216194153
0.6451749205589294
0.6951758861541748
0.7380945086479187
0.7732244729995728
0.7998915910720825
0.8174426555633545
0.82523113489151
0.8226138949394226
0.8089544177055359
0.7836335301399231
0.7460805177688599
0.6958187222480774
0.6325435042381287
0.5562124848365784
0.46716758608818054
0.3662582337856293
0.2549385726451874
0.13532686233520508
0.010165266692638397
-0.11730355769395828
-0.24357065558433533
-0.3651391267776489
-0.47880449891090393
-0.5818783044815063
-0.6723162531852722
-0.7487384676933289
-0.8103709816932678
-0.856928288936615
-0.8884783983230591
-0.9053203463554382
-0.9078797101974487
-0.8966395258903503
-0.872107207775116
-0.8347992300987244
-0.7852650880813599
-0.7241147756576538
-0.6520623564720154
-0.5699709057807922
-0.478891521692276
-0.3800818920135498
-0.27501213550567627
-0.16534581780433655
-0.052899070084095
0.06040526181459427
0.17260316014289856
0.2817516028881073
0.38599565625190735
0.48361942172050476
0.5731003880500793
0.6531333923339844
0.722644031047821
0.7807796001434326
0.8268885612487793
0.8604857325553894
0.8812167644500732
0.8888310194015503
0.8831639885902405
0.8641324043273926
0.831748902797699
0.7861564755439758
0.72767174243927
0.6568391919136047
0.574489414691925
0.4817737638950348
0.3801761567592621
0.271485835313797
0.15773612260818481
0.04111047089099884
-0.07616110891103745
-0.19189372658729553
-0.3040263056755066
-0.41066208481788635
-0.5100993514060974
-0.6008327603340149
-0.6815503239631653
-0.7511287331581116
-0.8086212277412415
-0.8532572388648987
-0.8844296932220459
-0.9017007350921631
-0.9047967791557312
-0.8936169147491455
-0.8682423233985901
-0.8289515972137451
-0.7762430906295776
-0.7108506560325623
-0.6337595582008362
-0.5462124943733215
-0.44969436526298523
-0.34590527415275574
-0.23671019077301025
-0.12407103925943375
-0.009973414242267609
0.10364734381437302
0.21497198939323425
0.3223591148853302
0.4243735074996948
0.5198107957839966
0.6077050566673279
0.6154035925865173
0.6763277053833008
0.7309909462928772
0.778522789478302
0.8180847764015198
0.848865807056427
0.8700582385063171
0.8808504343032837
0.8804172873497009
0.8679245114326477
0.8425428867340088
0.8034948706626892
0.7501181364059448
0.6819780468940735
0.5989950299263
0.5016126036643982
0.39095354080200195
0.2689317762851715
0.1382756531238556
0.002426736056804657
-0.13471367955207825
-0.26910948753356934
-0.39696934819221497
-0.5150448679924011
-0.6208271384239197
-0.7125961780548096
-0.7893614172935486
-0.8507251739501953
-0.896719753742218
-0.9276441931724548
-0.9439379572868347
-0.9460868239402771
-0.9345613121986389
-0.9097965955734253
-0.8721949458122253
-0.8221519589424133
-0.7601025700569153
-0.6865756511688232
-0.6022614240646362
-0.508067786693573
-0.40516963601112366
-0.29503241181373596
-0.17940515279769897
-0.06028110533952713
0.06017737835645676
0.1797286868095398
0.29615315794944763
0.407352477312088
0.5114243030548096
0.6067150235176086
0.6918514370918274
0.765730082988739
0.8274943232536316
0.8765022158622742
0.9122721552848816
0.9344455003738403
0.9427502751350403
0.9369865655899048
0.9170239567756653
0.8828300833702087
0.83450847864151
0.7723618149757385
0.6969591975212097
0.609197735786438
0.5103517174720764
0.4020770788192749
0.28637897968292236
0.16552764177322388
0.04193811118602753
-0.08195037394762039
-0.2037988007068634
-0.32144895195961
-0.4329726994037628
-0.5366813540458679
-0.6311187148094177
-0.715043306350708
-0.7874014973640442
-0.8473091721534729
-0.8940357565879822
-0.9269937872886658
-0.9457307457923889
-0.9499272704124451
-0.9394060969352722
-0.9141427278518677
-0.8742918968200684
-0.82021564245224
-0.7525208592414856
-0.6720902919769287
-0.5801140666007996
-0.47809264063835144
-0.3678247034549713
-0.25136229395866394
-0.1309417188167572
-0.008881501853466034
0.11251556128263474
0.23107203841209412
0.34482136368751526
0.4520740509033203
0.5514566898345947
0.6419183611869812
0.6322395205497742
0.6973302960395813
0.7562926411628723
0.8081215023994446
0.8518375754356384
0.886475145816803
0.9110626578330994
0.9246132969856262
0.9261115789413452
0.9145246744155884
0.8888281583786011
0.8480637669563293
0.7914354205131531
0.7184531092643738
0.629108726978302
0.5240722894668579
0.4048686921596527
0.27396994829177856
0.13474515080451965
-0.008744396269321442
-0.15210965275764465
-0.29105719923973083
-0.42178452014923096
-0.5412499308586121
-0.6472911238670349
-0.7385795712471008
-0.8144964575767517
-0.8749369978904724
-0.9201388955116272
-0.9505186676979065
-0.9665583968162537
-0.9687245488166809
-0.9574297070503235
-0.9330188632011414
-0.8957812786102295
-0.8459867238998413
-0.7839318513870239
-0.7100108861923218
-0.6247810125350952
-0.5290383696556091
-0.42388251423835754
-0.3107498288154602
-0.1914219856262207
-0.06798527389764786
0.057248882949352264
0.18185877799987793
0.30343589186668396
0.4197065532207489
0.5286238193511963
0.6284305453300476
0.7176727056503296
0.7951958179473877
0.8601020574569702
0.9117094278335571
0.9494938254356384
0.973048985004425
0.9820495843887329
0.97624272108078
0.9554556012153625
0.919627845287323
0.8688716292381287
0.8035364151000977
0.7242878675460815
0.632163941860199
0.5286089181900024
0.4154640734195709
0.2949104607105255
0.16936621069908142
0.04136042296886444
-0.08659929782152176
-0.2121385633945465
-0.3330923914909363
-0.4475504457950592
-0.5538578629493713
-0.6505991220474243
-0.7365756630897522
-0.8107745051383972
-0.8723442554473877
-0.9205739498138428
-0.9548797011375427
-0.9747936129570007
-0.9799614548683167
-0.970146119594574
-0.9452429413795471
-0.9053099751472473
-0.8505952954292297
-0.7815949320793152
-0.6990888714790344
-0.6041943430900574
-0.49839088320732117
-0.3835248053073883
-0.261771559715271
-0.13557147979736328
-0.00751505047082901
0.11978655308485031
0.24383217096328735
0.362365186214447
0.4734601676464081
0.5755786299705505
0.6675933003425598
0.6390525102615356
0.7077233195304871
0.7704442143440247
0.8260667324066162
0.8734543919563293
0.9114763140678406
0.938984215259552
0.9548057913780212
0.957739531993866
0.9465687870979309
0.9201043248176575
0.8772703409194946
0.8172282576560974
0.7395579218864441
0.6444655060768127
0.5329961776733398
0.4071894884109497
0.2700972855091095
0.1256437599658966
-0.021701253950595856
-0.16736602783203125
-0.30712607502937317
-0.437448114156723
-0.5556808114051819
-0.6600701808929443
-0.7496474385261536
-0.8240546584129333
-0.8833504319190979
-0.9278422594070435
-0.9579469561576843
-0.974098265171051
-0.9766889214515686
-0.9660380482673645
-0.9423955082893372
-0.9059569835662842
-0.8569008111953735
-0.7954450249671936
-0.7219087481498718
-0.6367874145507812
-0.5408279299736023
-0.4350852370262146
-0.32097259163856506
-0.2002606987953186
-0.07504493743181229
0.0523347482085228
0.1794089674949646
0.30370697379112244
0.4228825271129608
0.5348100662231445
0.6376498341560364
0.7298634648323059
0.8102062940597534
0.8776893615722656
0.9315314888954163
0.9711115956306458
0.9959255456924438
1.005565881729126
0.9997122287750244
0.9781565070152283
0.9408487677574158
0.887965202331543
0.8199778199195862
0.7377291917800903
0.6424679756164551
0.5358521938323975
0.4199017882347107
0.2969089448451996
0.16932561993598938
0.039645008742809296
-0.08970529586076736
-0.21644338965415955
-0.33848872780799866
-0.45398643612861633
-0.5613113641738892
-0.6590601801872253
-0.7460336089134216
-0.8212120532989502
-0.8837338089942932
-0.9328799247741699
-0.9680532813072205
-0.9887705445289612
-0.9946547150611877
-0.9854357838630676
-0.960967481136322
-0.9212471842765808
-0.8664597272872925
-0.7970193028450012
-0.713628351688385
-0.6173344254493713
-0.5095714330673218
-0.3921807110309601
-0.26739075779914856
-0.13775542378425598
-0.006040938198566437
0.12492021173238754
0.25238412618637085
0.3738596439361572
0.4872184097766876
0.5907797813415527
0.6833302974700928
0.6357904672622681
0.7072910666465759
0.7730537056922913
0.8317728638648987
0.8821449875831604
0.922858476638794
0.9525826573371887
0.9699566960334778
0.9736042022705078
0.9621607661247253
0.9343392848968506
0.8890414237976074
0.825523853302002
0.7435988783836365
0.6438519954681396
0.5278338193893433
0.3981339633464813
0.2583070695400238
0.11260432749986649
-0.03442279249429703
-0.1783839464187622
-0.31543129682540894
-0.442508727312088
-0.5574313402175903
-0.6588147282600403
-0.7459359169006348
-0.818553626537323
-0.8767422437667847
-0.9207515716552734
-0.950897753238678
-0.9675000309944153
-0.9708316922187805
-0.9611073136329651
-0.9384865164756775
-0.9030973315238953
-0.8550744652748108
-0.7946160435676575
-0.7220388650894165
-0.6378533244132996
-0.5428231358528137
-0.43801453709602356
-0.3248308002948761
-0.2050010859966278
-0.0805511549115181
0.04627247899770737
0.1730976402759552
0.29753559827804565
0.4172839820384979
0.5302187204360962
0.6344481110572815
0.7283424735069275
0.8105319142341614
0.8798804879188538
0.9354509711265564
0.9764699935913086
1.0022950172424316
1.0124058723449707
1.0064142942428589
0.9840996861457825
0.9454711079597473
0.8908341526985168
0.8208656907081604
0.7366580367088318
0.6397215723991394
0.5319364666938782
0.4154565632343292
0.29259830713272095
0.16571903228759766
0.03713076561689377
-0.09095770865678787
-0.21646910905838013
-0.3374745845794678
-0.45220252871513367
-0.559048056602478
-0.6565829515457153
-0.7435532212257385
-0.8188812136650085
-0.8816530108451843
-0.9311065673828125
-0.9666196703910828
-0.9876903891563416
-0.9939354062080383
-0.9850862622261047
-0.9609931111335754
-0.9216505885124207
-0.8672270774841309
-0.7981078624725342
-0.7149568200111389
-0.618766188621521
-0.510916531085968
-0.3931991755962372
-0.26782169938087463
-0.13734906911849976
-0.0046049728989601135
0.12747812271118164
0.25602254271507263
0.378383070230484
0.4922846257686615
0.5959202647209167
0.687993586063385
0.6226240992546082
0.696044385433197
0.7639505863189697
0.8248763680458069
0.8773384690284729
0.9198377132415771
0.9508535265922546
0.9688528180122375
0.9723144173622131
0.9597871899604797
0.9299852252006531
0.8819305896759033
0.8151417374610901
0.7298403978347778
0.6271406412124634
0.5091509222984314
0.3789457678794861
0.2403622567653656
0.09765251725912094
-0.04492608457803726
-0.1834925413131714
-0.3148052990436554
-0.43637552857398987
-0.5464546084403992
-0.6439266800880432
-0.7281702160835266
-0.7989153265953064
-0.8561201095581055
-0.8998697996139526
-0.9303114414215088
-0.9475968480110168
-0.9518579840660095
-0.9432035088539124
-0.9217185974121094
-0.8874988555908203
-0.8406847715377808
-0.7815123796463013
-0.7103726267814636
-0.6278582811355591
-0.534814178943634
-0.43236085772514343
-0.3218994438648224
-0.20509418845176697
-0.08382924646139145
0.03984551876783371
0.16378548741340637
0.2858095169067383
0.40377485752105713
0.5156328678131104
0.6194838881492615
0.7136091589927673
0.796485960483551
0.866788923740387
0.9233784079551697
0.9652824401855469
0.9916910529136658
1.001962423324585
0.9956527352333069
0.9725675582885742
0.9328323006629944
0.8769579529762268
0.8058949112892151
0.7210329174995422
0.6241492629051208
0.5173060894012451
0.4027104675769806
0.28258365392684937
0.15906842052936554
0.03418120741844177
-0.09018140286207199
-0.21221807599067688
-0.3301975429058075
-0.4424486458301544
-0.5473784804344177
-0.6434994339942932
-0.7294659614562988
-0.8040958046913147
-0.8663825392723083
-0.9154938459396362
-0.9507648348808289
-0.9716808199882507
-0.9778712391853333
-0.9690971970558167
-0.945254385471344
-0.9063845872879028
-0.8526968955993652
-0.7846054434776306
-0.7027726769447327
-0.6081666350364685
-0.5021080374717712
-0.3863104283809662
-0.26288485527038574
-0.1343044638633728
-0.0033213868737220764
0.1271655261516571
0.25427234172821045
0.37530872225761414
0.48791947960853577
0.5902076959609985
0.680783212184906
0.5999119877815247
0.6741867661476135
0.7431653141975403
0.8052166104316711
0.8586730360984802
0.9018465280532837
0.9330388307571411
0.9505728483200073
0.9528419971466064
0.9384062886238098
0.9061177968978882
0.8552855253219604
0.7858713269233704
0.6986579895019531
0.5953526496887207
0.47856995463371277
0.351666122674942
0.21844279766082764
0.08279111236333847
-0.05165085941553116
-0.18173888325691223
-0.30493369698524475
-0.41930270195007324
-0.5234442353248596
-0.6163843274116516
-0.6974696516990662
-0.76628178358078
-0.822563111782074
-0.8661652207374573
-0.8970097899436951
-0.9150554537773132
-0.9202877879142761
-0.9127128720283508
-0.892371654510498
-0.8593649864196777
-0.8138913512229919
-0.7562873363494873
-0.6870734095573425
-0.6069836020469666
-0.5169824957847595
-0.4182625114917755
-0.3122192621231079
-0.20041266083717346
-0.08452726155519485
0.033662207424640656
0.15232083201408386
0.2695685029029846
0.38350191712379456
0.49222010374069214
0.5938543677330017
0.6866134405136108
0.7688174843788147
0.8389328122138977
0.8955868482589722
0.937592625617981
0.9639622569084167
0.9739435911178589
0.9670704007148743
0.9432304501533508
0.9027321338653564
0.8463586568832397
0.7753711342811584
0.6914557218551636
0.5966082811355591
0.4929722249507904
0.3826858699321747
0.26776203513145447
0.15003067255020142
0.03114932030439377
-0.08733580261468887
-0.2039204239845276
-0.3170802593231201
-0.42525580525398254
-0.5268644690513611
-0.6203535795211792
-0.7042630314826965
-0.7772794961929321
-0.8382778167724609
-0.8863335251808167
-0.9207321405410767
-0.940951406955719
-0.9466506838798523
-0.9376516938209534
-0.9139389395713806
-0.8756470680236816
-0.8230778574943542
-0.7567169070243835
-0.6772700548171997
-0.5857014656066895
-0.48328009247779846
-0.371610552072525
-0.2526478171348572
-0.12868264317512512
-0.0022731944918632507
0.1238531544804573
0.24694335460662842
0.36437326669692993
0.4737962782382965
0.5732634663581848
0.6612986922264099
0.5681755542755127
0.6420897841453552
0.710900604724884
0.7728110551834106
0.8259773850440979
0.8685349822044373
0.8986403942108154
0.9145277738571167
0.9146034121513367
0.8975676894187927
0.8625720739364624
0.8093924522399902
0.7385798096656799
0.6515480875968933
0.5505445599555969