# vtk DataFile Version 3.0
2D PINN Solution
ASCII
DATASET STRUCTURED_GRID
DIMENSIONS 100 100 1
POINTS 10000 float
-1.0 -1.0 0.0
-0.9797979797979798 -1.0 0.0
-0.9595959595959596 -1.0 0.0
-0.9393939393939394 -1.0 0.0
-0.9191919191919192 -1.0 0.0
-0.898989898989899 -1.0 0.0
-0.8787878787878788 -1.0 0.0
-0.8585858585858586 -1.0 0.0
-0.8383838383838383 -1.0 0.0
-0.8181818181818181 -1.0 0.0
-0.797979797979798 -1.0 0.0
-0.7777777777777778 -1.0 0.0
-0.7575757575757576 -1.0 0.0
-0.7373737373737373 -1.0 0.0
-0.7171717171717171 -1.0 0.0
-0.696969696969697 -1.0 0.0
-0.6767676767676767 -1.0 0.0
-0.6565656565656566 -1.0 0.0
-0.6363636363636364 -1.0 0.0
-0.6161616161616161 -1.0 0.0
-0.5959595959595959 -1.0 0.0
-0.5757575757575757 -1.0 0.0
-0.5555555555555556 -1.0 0.0
-0.5353535353535352 -1.0 0.0
-0.5151515151515151 -1.0 0.0
-0.4949494949494949 -1.0 0.0
-0.4747474747474747 -1.0 0.0
-0.4545454545454545 -1.0 0.0
-0.43434343434343425 -1.0 0.0
-0.41414141414141414 -1.0 0.0
-0.3939393939393939 -1.0 0.0
-0.3737373737373737 -1.0 0.0
-0.3535353535353535 -1.0 0.0
-0.33333333333333326 -1.0 0.0
-0.31313131313131304 -1.0 0.0
-0.2929292929292928 -1.0 0.0
-0.2727272727272727 -1.0 0.0
-0.2525252525252525 -1.0 0.0
-0.23232323232323226 -1.0 0.0
-0.21212121212121204 -1.0 0.0
-0.19191919191919182 -1.0 0.0
-0.1717171717171716 -1.0 0.0
-0.1515151515151515 -1.0 0.0
-0.13131313131313127 -1.0 0.0
-0.11111111111111105 -1.0 0.0
-0.09090909090909083 -1.0 0.0
-0.07070707070707061 -1.0 0.0
-0.050505050505050386 -1.0 0.0
-0.030303030303030276 -1.0 0.0
-0.010101010101010055 -1.0 0.0
0.010101010101010166 -1.0 0.0
0.030303030303030498 -1.0 0.0
0.05050505050505061 -1.0 0.0
0.07070707070707072 -1.0 0.0
0.09090909090909105 -1.0 0.0
0.11111111111111116 -1.0 0.0
0.1313131313131315 -1.0 0.0
0.1515151515151516 -1.0 0.0
0.1717171717171717 -1.0 0.0
0.19191919191919204 -1.0 0.0
0.21212121212121215 -1.0 0.0
0.2323232323232325 -1.0 0.0
0.2525252525252526 -1.0 0.0
0.27272727272727293 -1.0 0.0
0.29292929292929304 -1.0 0.0
0.31313131313131315 -1.0 0.0
0.3333333333333335 -1.0 0.0
0.3535353535353536 -1.0 0.0
0.3737373737373739 -1.0 0.0
0.39393939393939403 -1.0 0.0
0.41414141414141437 -1.0 0.0
0.4343434343434345 -1.0 0.0
0.4545454545454546 -1.0 0.0
0.4747474747474749 -1.0 0.0
0.49494949494949503 -1.0 0.0
0.5151515151515154 -1.0 0.0
0.5353535353535355 -1.0 0.0
0.5555555555555556 -1.0 0.0
0.5757575757575759 -1.0 0.0
0.595959595959596 -1.0 0.0
0.6161616161616164 -1.0 0.0
0.6363636363636365 -1.0 0.0
0.6565656565656568 -1.0 0.0
0.6767676767676769 -1.0 0.0
0.696969696969697 -1.0 0.0
0.7171717171717173 -1.0 0.0
0.7373737373737375 -1.0 0.0
0.7575757575757578 -1.0 0.0
0.7777777777777779 -1.0 0.0
0.7979797979797982 -1.0 0.0
0.8181818181818183 -1.0 0.0
0.8383838383838385 -1.0 0.0
0.8585858585858588 -1.0 0.0
0.8787878787878789 -1.0 0.0
0.8989898989898992 -1.0 0.0
0.9191919191919193 -1.0 0.0
0.9393939393939394 -1.0 0.0
0.9595959595959598 -1.0 0.0
0.9797979797979799 -1.0 0.0
1.0 -1.0 0.0
-1.0 -0.9797979797979798 0.0
-0.9797979797979798 -0.9797979797979798 0.0
-0.9595959595959596 -0.9797979797979798 0.0
-0.9393939393939394 -0.9797979797979798 0.0
-0.9191919191919192 -0.9797979797979798 0.0
-0.898989898989899 -0.9797979797979798 0.0
-0.8787878787878788 -0.9797979797979798 0.0
-0.8585858585858586 -0.9797979797979798 0.0
-0.8383838383838383 -0.9797979797979798 0.0
-0.8181818181818181 -0.9797979797979798 0.0
-0.797979797979798 -0.9797979797979798 0.0
-0.7777777777777778 -0.9797979797979798 0.0
-0.7575757575757576 -0.9797979797979798 0.0
-0.7373737373737373 -0.9797979797979798 0.0
-0.7171717171717171 -0.9797979797979798 0.0
-0.696969696969697 -0.9797979797979798 0.0
-0.6767676767676767 -0.9797979797979798 0.0
-0.6565656565656566 -0.9797979797979798 0.0
-0.6363636363636364 -0.9797979797979798 0.0
-0.6161616161616161 -0.9797979797979798 0.0
-0.5959595959595959 -0.9797979797979798 0.0
-0.5757575757575757 -0.9797979797979798 0.0
-0.5555555555555556 -0.9797979797979798 0.0
-0.5353535353535352 -0.9797979797979798 0.0
-0.5151515151515151 -0.9797979797979798 0.0
-0.4949494949494949 -0.9797979797979798 0.0
-0.4747474747474747 -0.9797979797979798 0.0
-0.4545454545454545 -0.9797979797979798 0.0
-0.43434343434343425 -0.9797979797979798 0.0
-0.41414141414141414 -0.9797979797979798 0.0
-0.3939393939393939 -0.9797979797979798 0.0
-0.3737373737373737 -0.9797979797979798 0.0
-0.3535353535353535 -0.9797979797979798 0.0
-0.33333333333333326 -0.9797979797979798 0.0
-0.31313131313131304 -0.9797979797979798 0.0
-0.2929292929292928 -0.9797979797979798 0.0
-0.2727272727272727 -0.9797979797979798 0.0
-0.2525252525252525 -0.9797979797979798 0.0
-0.23232323232323226 -0.9797979797979798 0.0
-0.21212121212121204 -0.9797979797979798 0.0
-0.19191919191919182 -0.9797979797979798 0.0
-0.1717171717171716 -0.9797979797979798 0.0
-0.1515151515151515 -0.9797979797979798 0.0
-0.13131313131313127 -0.9797979797979798 0.0
-0.11111111111111105 -0.9797979797979798 0.0
-0.09090909090909083 -0.9797979797979798 0.0
-0.07070707070707061 -0.9797979797979798 0.0
-0.050505050505050386 -0.9797979797979798 0.0
-0.030303030303030276 -0.9797979797979798 0.0
-0.010101010101010055 -0.9797979797979798 0.0
0.010101010101010166 -0.9797979797979798 0.0
0.030303030303030498 -0.9797979797979798 0.0
0.05050505050505061 -0.9797979797979798 0.0
0.07070707070707072 -0.9797979797979798 0.0
0.09090909090909105 -0.9797979797979798 0.0
0.11111111111111116 -0.9797979797979798 0.0
0.1313131313131315 -0.9797979797979798 0.0
0.1515151515151516 -0.9797979797979798 0.0
0.1717171717171717 -0.9797979797979798 0.0
0.19191919191919204 -0.9797979797979798 0.0
0.21212121212121215 -0.9797979797979798 0.0
0.2323232323232325 -0.9797979797979798 0.0
0.2525252525252526 -0.9797979797979798 0.0
0.27272727272727293 -0.9797979797979798 0.0
0.29292929292929304 -0.9797979797979798 0.0
0.31313131313131315 -0.9797979797979798 0.0
0.3333333333333335 -0.9797979797979798 0.0
0.3535353535353536 -0.9797979797979798 0.0
0.3737373737373739 -0.9797979797979798 0.0
0.39393939393939403 -0.9797979797979798 0.0
0.41414141414141437 -0.9797979797979798 0.0
0.4343434343434345 -0.9797979797979798 0.0
0.4545454545454546 -0.9797979797979798 0.0
0.4747474747474749 -0.9797979797979798 0.0
0.49494949494949503 -0.9797979797979798 0.0
0.5151515151515154 -0.9797979797979798 0.0
0.5353535353535355 -0.9797979797979798 0.0
0.5555555555555556 -0.9797979797979798 0.0
0.5757575757575759 -0.9797979797979798 0.0
0.595959595959596 -0.9797979797979798 0.0
0.6161616161616164 -0.9797979797979798 0.0
0.6363636363636365 -0.9797979797979798 0.0
0.6565656565656568 -0.9797979797979798 0.0
0.6767676767676769 -0.9797979797979798 0.0
0.696969696969697 -0.9797979797979798 0.0
0.7171717171717173 -0.9797979797979798 0.0
0.7373737373737375 -0.9797979797979798 0.0
0.7575757575757578 -0.9797979797979798 0.0
0.7777777777777779 -0.9797979797979798 0.0
0.7979797979797982 -0.9797979797979798 0.0
0.8181818181818183 -0.9797979797979798 0.0
0.8383838383838385 -0.9797979797979798 0.0
0.8585858585858588 -0.9797979797979798 0.0
0.8787878787878789 -0.9797979797979798 0.0
0.8989898989898992 -0.9797979797979798 0.0
0.9191919191919193 -0.9797979797979798 0.0
0.9393939393939394 -0.9797979797979798 0.0
0.9595959595959598 -0.9797979797979798 0.0
0.9797979797979799 -0.9797979797979798 0.0
1.0 -0.9797979797979798 0.0
-1.0 -0.9595959595959596 0.0
-0.9797979797979798 -0.9595959595959596 0.0
-0.9595959595959596 -0.9595959595959596 0.0
-0.9393939393939394 -0.9595959595959596 0.0
-0.9191919191919192 -0.9595959595959596 0.0
-0.898989898989899 -0.9595959595959596 0.0
-0.8787878787878788 -0.9595959595959596 0.0
-0.8585858585858586 -0.9595959595959596 0.0
-0.8383838383838383 -0.9595959595959596 0.0
-0.8181818181818181 -0.9595959595959596 0.0
-0.797979797979798 -0.9595959595959596 0.0
-0.7777777777777778 -0.9595959595959596 0.0
-0.7575757575757576 -0.9595959595959596 0.0
-0.7373737373737373 -0.9595959595959596 0.0
-0.7171717171717171 -0.9595959595959596 0.0
-0.696969696969697 -0.9595959595959596 0.0
-0.6767676767676767 -0.9595959595959596 0.0
-0.6565656565656566 -0.9595959595959596 0.0
-0.6363636363636364 -0.9595959595959596 0.0
-0.6161616161616161 -0.9595959595959596 0.0
-0.5959595959595959 -0.9595959595959596 0.0
-0.5757575757575757 -0.9595959595959596 0.0
-0.5555555555555556 -0.9595959595959596 0.0
-0.5353535353535352 -0.9595959595959596 0.0
-0.5151515151515151 -0.9595959595959596 0.0
-0.4949494949494949 -0.9595959595959596 0.0
-0.4747474747474747 -0.9595959595959596 0.0
-0.4545454545454545 -0.9595959595959596 0.0
-0.43434343434343425 -0.9595959595959596 0.0
-0.41414141414141414 -0.9595959595959596 0.0
-0.3939393939393939 -0.9595959595959596 0.0
-0.3737373737373737 -0.9595959595959596 0.0
-0.3535353535353535 -0.9595959595959596 0.0
-0.33333333333333326 -0.9595959595959596 0.0
-0.31313131313131304 -0.9595959595959596 0.0
-0.2929292929292928 -0.9595959595959596 0.0
-0.2727272727272727 -0.9595959595959596 0.0
-0.2525252525252525 -0.9595959595959596 0.0
-0.23232323232323226 -0.9595959595959596 0.0
-0.21212121212121204 -0.9595959595959596 0.0
-0.19191919191919182 -0.9595959595959596 0.0
-0.1717171717171716 -0.9595959595959596 0.0
-0.1515151515151515 -0.9595959595959596 0.0
-0.13131313131313127 -0.9595959595959596 0.0
-0.11111111111111105 -0.9595959595959596 0.0
-0.09090909090909083 -0.9595959595959596 0.0
-0.07070707070707061 -0.9595959595959596 0.0
-0.050505050505050386 -0.9595959595959596 0.0
-0.030303030303030276 -0.9595959595959596 0.0
-0.010101010101010055 -0.9595959595959596 0.0
0.010101010101010166 -0.9595959595959596 0.0
0.030303030303030498 -0.9595959595959596 0.0
0.05050505050505061 -0.9595959595959596 0.0
0.07070707070707072 -0.9595959595959596 0.0
0.09090909090909105 -0.9595959595959596 0.0
0.11111111111111116 -0.9595959595959596 0.0
0.1313131313131315 -0.9595959595959596 0.0
0.1515151515151516 -0.9595959595959596 0.0
0.1717171717171717 -0.9595959595959596 0.0
0.19191919191919204 -0.9595959595959596 0.0
0.21212121212121215 -0.9595959595959596 0.0
[...]
POINT_DATA 10000
SCALARS u float 1
LOOKUP_TABLE default
0.46141180396080017
0.3873575031757355
0.3092897832393646
0.22912836074829102
0.14828184247016907
0.06762953847646713
-0.012375868856906891
-0.09153754264116287
-0.16971489787101746
-0.24663713574409485
-0.3217637240886688
-0.3942072093486786
-0.4627263844013214
-0.5257911682128906
-0.5816933512687683
-0.6286858320236206
-0.6651393175125122
-0.6896886825561523
-0.7013666033744812
-0.6997179388999939
-0.6848581433296204
-0.6574714779853821
-0.6187276840209961
-0.5701067447662354
-0.5131873488426208
-0.4494418203830719
-0.38011059165000916
-0.30618226528167725
-0.22845828533172607
-0.1476714015007019
-0.06460205465555191
0.01984073966741562
0.10458298772573471
0.18838423490524292
0.2698776125907898
0.3476206660270691
0.42015787959098816
0.48609137535095215
0.5441396832466125
0.5931904911994934
0.6323418021202087
0.6609222292900085
0.6785028576850891
0.6848849654197693
0.6800944805145264
0.6643520593643188
0.6380536556243896
0.6017404794692993
0.5560721755027771
0.5018007159233093
0.43975743651390076
0.37083253264427185
0.2959805727005005
0.21621766686439514
0.132637619972229
0.046417705714702606
-0.041169993579387665
-0.12875297665596008
-0.2148664891719818
-0.2979578673839569
-0.3764195144176483
-0.4486323893070221
-0.5130322575569153
-0.5682113766670227
-0.6130246520042419
-0.6466939449310303
-0.6688551306724548
-0.6795400381088257
-0.6790974140167236
-0.6680848598480225
-0.6471641659736633
-0.6170169711112976
-0.5782981514930725
-0.5316104292869568
-0.4775111973285675
-0.4165278375148773
-0.3491923213005066
-0.2760851979255676
-0.1978822648525238
-0.11540737003087997
-0.029681779444217682
0.05804038792848587
0.14626434445381165
0.23327204585075378
0.3171856701374054
0.39605748653411865
0.46798616647720337
0.5312379598617554
0.5843647718429565
0.6262809038162231
0.656328558921814
0.6742921471595764
0.6804043650627136
0.675311267375946
0.6600341200828552
0.6359149217605591
0.6045550107955933
0.5677477717399597
0.5274019837379456
0.4854717552661896
0.39157214760780334
0.3275381922721863
0.26092222332954407
0.19325053691864014
0.12550750374794006
0.058182261884212494
-0.008610494434833527
-0.07494554668664932
-0.14090389013290405
-0.20639613270759583
-0.2710306942462921
-0.3340316116809845
-0.39422160387039185
-0.4500844180583954
-0.4998784363269806
-0.5418047904968262
-0.57419353723526
-0.5956924557685852
-0.6054241061210632
-0.6030949950218201
-0.5890283584594727
-0.5641071200370789
-0.5296247601509094
-0.487067848443985
-0.4378921687602997
-0.38334956765174866
-0.32441505789756775
-0.2618156969547272
-0.19612374901771545
-0.1278786063194275
-0.05767510086297989
0.013769842684268951
0.08560303598642349
0.1568375825881958
0.22638466954231262
0.2930797040462494
0.35572686791419983
0.41313594579696655
0.4641636312007904
0.5077639818191528
0.5430252552032471
0.5692108273506165
0.58577960729599
0.5924078226089478
0.5889883637428284
0.5756362080574036
0.5526662468910217
0.5205855369567871
0.4800620377063751
0.43189483880996704
0.3769805133342743
0.31628313660621643
0.25079894065856934
0.1815429925918579
0.10953662544488907
0.035806261003017426
-0.03860924392938614
-0.11264888197183609
-0.18521961569786072
-0.25518667697906494
-0.32137247920036316
-0.38256171345710754
-0.4375207722187042
-0.4850553572177887
-0.524087131023407
-0.5537621378898621
-0.5735429525375366
-0.583262026309967
-0.5830951929092407
-0.5734960436820984
-0.5550896525382996
-0.5285813212394714
-0.4946822226047516
-0.4540656507015228
-0.40734153985977173
-0.3550623953342438
-0.2977258265018463
-0.23580816388130188
-0.1698003113269806
-0.10025734454393387
-0.027856357395648956
0.0465460941195488
0.12186538428068161
0.19677159190177917
0.2697007954120636
0.3389247953891754
0.4026385247707367
0.45909348130226135
0.5067320466041565
0.5443037748336792
0.5709638595581055
0.5863326191902161
0.590516984462738
0.584089994430542
0.5680566430091858
0.5437861680984497
0.512939453125
0.47738024592399597
0.4390895962715149
0.40007343888282776
0.3167666494846344
0.26436030864715576
0.21047547459602356
0.15619274973869324
0.10211753100156784
0.048447273671627045
-0.0048979297280311584
-0.058122314512729645
-0.11140123754739761
-0.16473594307899475
-0.21783766150474548
-0.2700521945953369
-0.3203350901603699
-0.36729657649993896
-0.40931305289268494
-0.4447014033794403
-0.4719103276729584
-0.489728718996048
-0.4974411427974701
-0.4949144423007965
-0.48259785771369934
-0.4614143669605255
-0.4325849711894989
-0.3974155783653259
-0.3571060597896576
-0.31264129281044006
-0.26475968956947327
-0.21401247382164001
-0.16084760427474976
-0.10569687932729721
-0.049038879573345184
0.008575700223445892
0.06651011854410172
0.1240525022149086
0.1804223656654358
0.23477810621261597
0.28622910380363464
0.3338422477245331
0.37667033076286316
0.4137779772281647
0.4442901313304901
0.4674336016178131
0.4825836718082428
0.48930081725120544
0.48735475540161133
0.4767375886440277
0.45767202973365784
0.43059343099594116
0.39613813161849976
0.35510504245758057
0.30841726064682007
0.2570670545101166
0.20206788182258606
0.1444127857685089
0.08503883332014084
0.02481883019208908
-0.035437025129795074
-0.0949675664305687
-0.15303292870521545
-0.20889142155647278
-0.26177656650543213
-0.31087177991867065
-0.3553081452846527
-0.394169420003891
-0.4265378415584564
-0.4515739977359772
-0.4686274826526642
-0.4773336350917816
-0.4776586592197418
-0.4698839485645294
-0.45453497767448425
-0.432282954454422
-0.4038592576980591
-0.36998113989830017
-0.3313058018684387
-0.28840088844299316
-0.24174591898918152
-0.19173187017440796
-0.13869112730026245
-0.08294520527124405
-0.024859972298145294
0.0350726917386055
0.09617506712675095
0.15751847624778748
0.21791031956672668
0.2759137451648712
0.32991984486579895
0.3782656490802765
0.4193730652332306
0.4518909752368927
0.47482752799987793
0.48764607310295105
0.49030086398124695
0.48325881361961365
0.46745565533638
0.4442311227321625
0.4152422845363617
0.3823675811290741
0.347602516412735
0.31295570731163025
0.23847457766532898
0.19894778728485107
0.15868738293647766
0.11833887547254562
0.07819589227437973
0.03827687352895737
-0.0015653744339942932
-0.04154203087091446
-0.08181429654359818
-0.12239251285791397
-0.16304931044578552
-0.2032550871372223
-0.24215716123580933
-0.27860769629478455
-0.31126633286476135
-0.33874544501304626
-0.35978934168815613
-0.373456209897995
-0.3792415261268616
-0.3771352469921112
-0.36757758259773254
-0.3513452410697937
-0.32939326763153076
-0.30268779397010803
-0.272091805934906
-0.23831412196159363
-0.20191535353660583
-0.1633554995059967
-0.12304570525884628
-0.08138126879930496
-0.038761891424655914
0.004401974380016327
0.04769136756658554
0.09067467600107193
0.1328965723514557
0.1738581359386444
0.21300196647644043
0.24969267845153809
0.2832196056842804
0.31281334161758423
0.33768430352211
0.35707226395606995
0.3703058958053589
0.3768576681613922
0.3763881027698517
0.36877620220184326
0.354133278131485
0.33280330896377563
0.30534628033638
0.27250656485557556
0.2351686954498291
0.194295734167099
0.1508655846118927
0.10581328719854355
0.05997615307569504
0.014071948826313019
-0.03130728751420975
-0.0756724402308464
-0.11861089617013931
-0.159734845161438
-0.19865044951438904
-0.23491844534873962
-0.2680230438709259
-0.29736194014549255
-0.3222457468509674
-0.34195196628570557
-0.35580793023109436
-0.3633064925670624
-0.3642067015171051
-0.35857895016670227
-0.3467806577682495
-0.3293870687484741
-0.30709096789360046
-0.2806147634983063
-0.2506321966648102
-0.21772006154060364
-0.18233072757720947
-0.144779235124588
-0.1052684560418129
-0.06391698867082596
-0.02082858234643936
0.023830927908420563
0.06975261121988297
0.11640240997076035
0.16297698020935059
0.20838984847068787
0.2513101100921631
0.29026368260383606
0.3237544894218445
0.3504241704940796
0.3691944181919098
0.37939175963401794
0.380827933549881
0.37382394075393677
0.3591923415660858
0.33818402886390686
0.31238406896591187
0.2836182415485382
0.25383150577545166
0.22498372197151184
0.15795370936393738
0.13214167952537537
0.10603030771017075
0.07987060397863388
0.0537235364317894
0.0275285467505455
0.0011635646224021912
-0.02549455314874649
-0.052514709532260895
-0.07985473424196243
-0.10731158405542374
-0.13448384404182434
-0.16075673699378967
-0.1853356957435608
-0.20730632543563843
-0.22575139999389648
-0.2398701012134552
-0.24909210205078125
-0.25314679741859436
-0.2520688474178314
-0.24614763259887695
-0.23583951592445374
-0.22167763113975525
-0.20419368147850037
-0.18388375639915466
-0.16120168566703796
-0.13658437132835388
-0.11045967787504196
-0.08324877172708511
-0.05534975975751877
-0.02710900455713272
0.0011936351656913757
0.02934766560792923
0.05719340592622757
0.08459632843732834
0.1113983616232872
0.13738107681274414
0.16222655773162842
0.1854974329471588
0.20663821697235107
0.22500190138816833
0.23989784717559814
0.25066059827804565
0.2567138671875
0.25763416290283203
0.2531973421573639
0.24340322613716125
0.2284804880619049
0.20887669920921326
0.18522891402244568
0.15831241011619568
0.12899044156074524
0.09813954681158066
0.06658538430929184
0.03503788262605667
0.004057072103023529
-0.025964178144931793
-0.054782457649707794
-0.08226426690816879
-0.1083378717303276
-0.13293877243995667
-0.1559622883796692
-0.17722225189208984
-0.19642621278762817
-0.2131563127040863
-0.2268800437450409
-0.23700419068336487
-0.24297377467155457
-0.2443864345550537
-0.24109646677970886
-0.23324865102767944
-0.22125226259231567
-0.20569643378257751
-0.1872502863407135
-0.1665632724761963
-0.144191712141037
-0.12054825574159622
-0.09587831050157547
-0.07026516646146774
-0.04366517812013626
-0.015963949263095856
0.01294601708650589
0.04307698458433151
0.07425639778375626
0.10606207698583603
0.13778573274612427
0.1684417426586151
0.19683387875556946
0.22165659070014954
0.241642028093338
0.25570932030677795
0.26310452818870544
0.2635051906108856
0.2570745050907135
0.2444615662097931
0.22675791382789612
0.20541051030158997
0.18211498856544495
0.15870040655136108
0.1370094120502472
0.07622440904378891
0.06453683227300644
0.052769266068935394
0.04083748906850815
0.02863960713148117
0.01609881967306137
0.0031811222434043884
-0.010095305740833282
-0.023661412298679352
-0.037385083734989166
-0.051069922745227814
-0.06444890052080154
-0.07719016820192337
-0.08892563730478287
-0.09928611665964127
-0.10795167833566666
-0.1146853044629097
-0.11934679001569748
-0.1218804195523262
-0.1222824975848198
-0.12057230621576309
-0.11677099019289017
-0.11091341823339462
-0.10306698828935623
-0.09337066859006882
-0.08205301314592361
-0.06945125013589859
-0.05597955733537674
-0.04207894951105118
-0.028150342404842377
-0.014490939676761627
-0.0012617185711860657
0.011518888175487518
0.02394380420446396
0.03617214411497116
0.04836655408143997
0.06063427776098251
0.0729757770895958
0.08524759858846664
0.0971473827958107
0.10822758823633194
0.11793195456266403
0.12565657496452332
0.13083070516586304
0.13297787308692932
0.13178840279579163
0.12714776396751404
0.11915526539087296
0.10811371356248856
0.09450151771306992
0.07892990857362747
0.062090031802654266
0.04468848556280136
0.027383141219615936
0.010720573365688324
-0.004907079041004181
-0.01929347962141037
-0.03240527957677841
-0.044347576797008514
-0.055315516889095306
-0.0655268058180809
-0.07517064362764359
-0.08435601741075516
-0.09307923167943954
-0.10119665414094925
-0.10841260105371475
-0.11429444700479507
-0.11833859235048294
-0.12006694823503494
-0.11915574222803116
-0.11552190035581589
-0.10935384780168533
-0.10106521099805832
-0.09120256453752518
-0.08033806830644608
-0.06896594911813736
-0.057438887655735016
-0.04592490941286087
-0.034403733909130096
-0.02269691973924637
-0.01051405817270279
0.0024706944823265076
0.016532160341739655
0.03181672841310501
0.048253439366817474
0.0655178651213646
0.0830037072300911
0.09986159950494766
0.11507172137498856
0.12756100296974182
0.1363404393196106
0.14064720273017883
0.14006295800209045
0.134596049785614
0.12469907850027084
0.11125447601079941
0.09549596160650253
0.07891812175512314
0.06315504759550095
0.049860380589962006
-0.005894280970096588
-0.0034467652440071106
-0.0009500756859779358
0.0012336894869804382
0.002886377274990082
0.00394584983587265
0.004488341510295868
0.004684261977672577
0.004753671586513519
0.0049189552664756775
0.005369596183300018
0.006222270429134369
0.007490925490856171
0.009066455066204071
0.010714195668697357
0.012100093066692352
0.012868963181972504
0.012737296521663666
0.01158992201089859
0.009530283510684967
0.006867431104183197
0.004040233790874481
0.0015064850449562073
-0.00037164241075515747
-0.001400582492351532
-0.001606769859790802
-0.0012181475758552551
-0.0006114020943641663
-0.00021386891603469849
-0.00039861351251602173
-0.0014044567942619324
-0.003277696669101715
-0.005869664251804352
-0.008868761360645294
-0.011861421167850494
-0.014399968087673187
-0.016080297529697418
-0.016598202288150787
-0.015800364315509796
-0.013708896934986115
-0.010527588427066803
-0.006618596613407135
-0.0024554356932640076
0.0014467760920524597
0.004605703055858612
0.006641753017902374
0.007329337298870087
0.006621338427066803
0.0046472325921058655
0.001689903438091278
-0.001851700246334076
-0.005512900650501251
-0.008813910186290741
-0.011315815150737762
-0.012677423655986786
-0.012696422636508942
-0.011345289647579193
-0.00877370685338974
-0.005288220942020416
-0.001301698386669159
0.0027276352047920227
0.006358928978443146
0.009225301444530487
0.011070914566516876
0.011781387031078339
0.0114065483212471
0.010168440639972687
0.008440695703029633
0.006680674850940704
0.005319438874721527
0.004642032086849213
0.0047073885798454285
0.005338646471500397
0.006181411445140839
0.006812088191509247
0.006841428577899933
0.0060103461146354675
0.004236958920955658
0.0016372427344322205
-0.0014976933598518372
-0.004741020500659943
-0.007601089775562286
-0.009587027132511139
-0.010293520987033844
-0.009473241865634918
-0.007090575993061066
-0.0033609047532081604
0.0012604370713233948
0.006105892360210419
0.010387413203716278
0.01330382376909256
0.014167509973049164
0.012524314224720001
0.00824662297964096
0.001584567129611969
-0.0068334415555000305
-0.016045860946178436
-0.02483586221933365
-0.03184158354997635
-0.0356675460934639
-0.08770541101694107
-0.07146639376878738
-0.055008865892887115
-0.03892794996500015
-0.023539729416370392
-0.008894510567188263
0.005175553262233734
0.01897060126066208
0.03283097594976425
0.04704492539167404
0.061761997640132904
0.07692184299230576
0.09219940751791
0.10699611157178879
0.12047790735960007
0.1316954791545868
0.13975557684898376
0.14401817321777344
0.1442510485649109
0.1406782865524292
0.13391244411468506
0.12478712946176529
0.11416808515787125
0.10278382152318954
0.09110929816961288
0.0793304517865181
0.06735903769731522
0.054918162524700165
0.0416593924164772
0.027284182608127594
0.011644057929515839
-0.005198575556278229
-0.02295113354921341
-0.04112625867128372
-0.05910060554742813
-0.07619131356477737
-0.0917317345738411
-0.10514409095048904
-0.11598701030015945
-0.12399651855230331
-0.12910285592079163
-0.13142716884613037
-0.1312553882598877
-0.12898710370063782
-0.1250661313533783
-0.11991263180971146
-0.11385843902826309
-0.10711383074522018
-0.09974672645330429
-0.09170139580965042
-0.08282618969678879
-0.07291566580533981
-0.061753325164318085
-0.04915861040353775
-0.03502506762742996
-0.01936458796262741
-0.0023360177874565125
0.01573968678712845
0.03438646346330643
0.05300960689783096
0.07095188647508621
0.08756072074174881
0.10224214941263199
0.11451239138841629
0.12402523308992386
0.13059961795806885
0.1342376172542572
0.13513362407684326
0.1336481273174286
0.13023117184638977
0.12531447410583496
0.11919363588094711
0.11196111887693405
0.10352254658937454
0.09366367012262344
0.08215906471014023
0.0688747838139534
0.053832702338695526
0.037240199744701385
0.019483231008052826
0.0010921880602836609
-0.017309941351413727
-0.035070352256298065
-0.05156899243593216
-0.0662849023938179
-0.07885483652353287
-0.08911503106355667
-0.09711844474077225
-0.10313118249177933
-0.10759002715349197
-0.1110261008143425
-0.11396967619657516
-0.11684257537126541
-0.11986241489648819
-0.12297522276639938
-0.1258237659931183
-0.12776806950569153
-0.12793636322021484
-0.12530741095542908
-0.11881274729967117
-0.16853204369544983
-0.13915041089057922
-0.10922286659479141
-0.07954917103052139
-0.050553299486637115
-0.02230674773454666
0.005397908389568329
0.03293018788099289
0.060688190162181854
0.08896555751562119
0.11782275885343552
0.14698532223701477
0.17578545212745667
0.20316624641418457
0.22777894139289856
0.24817201495170593
0.2630441188812256
0.27150464057922363
0.27324923872947693
0.2685934007167816
0.2583504915237427
0.2436208724975586
0.22554999589920044
0.20513305068016052
0.1830916404724121
0.15982916951179504
0.13545355200767517
0.10986682027578354
0.08287837356328964
0.05433022230863571
0.024198107421398163
-0.007334582507610321
-0.039857037365436554
-0.07274531573057175
-0.10521670430898666
-0.13639932870864868
-0.1654120683670044
-0.1914336383342743
-0.2137623131275177
-0.23185455799102783
-0.24536168575286865
-0.2541387975215912
-0.2582409381866455
-0.2579001784324646
-0.25347593426704407
-0.2453937828540802
-0.2340809404850006
-0.21991077065467834
-0.20317324995994568
-0.18406450748443604
-0.16270515322685242
-0.13916772603988647
-0.1135156974196434
-0.08583752065896988
-0.05628279596567154
-0.025092236697673798
0.007377408444881439
0.040631674230098724
0.0740373507142067
0.10684572905302048
0.13823339343070984
0.1673639714717865
0.19345062971115112
0.21580588817596436
0.23388293385505676
0.24729415774345398
0.2558402419090271
0.2595265507698059
0.2585712969303131
0.25337573885917664
0.24443915486335754
0.23224809765815735
0.21716991066932678
0.1994038224220276
0.17900118231773376
0.15595638751983643
0.1302955448627472
0.10216110199689865
0.07185583561658859
0.0398479625582695
0.00675094872713089
-0.026712186634540558
-0.059759773313999176
-0.09160042554140091
-0.12148096412420273
-0.14874780178070068
-0.17288336157798767
-0.19354918599128723
-0.21060016751289368
-0.22408568859100342
-0.23420467972755432
-0.24126455187797546
-0.2455822229385376
-0.24741464853286743
-0.24686619639396667
-0.243859201669693
-0.23809748888015747
-0.22910067439079285
-0.21624451875686646
-0.1988430917263031
-0.24762967228889465
-0.2060081660747528
-0.16326668858528137
-0.12039683014154434
-0.07795671373605728
-0.03609944134950638
0.005342863500118256
0.04671468585729599
0.08838143199682236
0.13055545091629028
0.17314371466636658
0.21562960743904114
0.2570219337940216
0.2958904802799225
0.33051228523254395
0.35910794138908386
0.38013866543769836
0.392571359872818
0.39605411887168884
0.390917032957077
0.3780435025691986
0.35863324999809265
0.3339671790599823
0.3052084147930145
0.2732788324356079
0.23881131410598755
0.2021631896495819
0.16348791122436523
0.12283607572317123
0.08025682717561722
0.03590140491724014
-0.009913064539432526
-0.056666888296604156
-0.10363074392080307
-0.14990714192390442
-0.1944846212863922
-0.23631125688552856
-0.2743629217147827
-0.30770549178123474
-0.33554568886756897
-0.35726651549339294
-0.3724556267261505
-0.3809228837490082
-0.38269922137260437
-0.378017395734787
-0.36727026104927063
-0.350951224565506
-0.32959118485450745
-0.3037036657333374
-0.27375584840774536
-0.240156352519989
-0.20326852798461914
-0.16343727707862854
-0.12101959437131882
-0.07641830295324326
-0.030102871358394623
0.01736130565404892
0.06530094891786575
0.11292844265699387
0.15934798121452332
0.2035897970199585
0.24466007947921753
0.281602144241333
0.3135512173175812
0.3397798240184784
0.3597274720668793
0.3730207681655884
0.3794977366924286
0.37923136353492737
0.3725288212299347
0.359895259141922
0.3419415056705475
0.3192707896232605
0.2923785150051117
0.26161932945251465
0.22724148631095886
0.18947124481201172
0.1485927700996399
0.10500650852918625
0.059258751571178436
0.012036852538585663