# vtk DataFile Version 3.0
2D PINN Solution
ASCII
DATASET STRUCTURED_GRID
DIMENSIONS 100 100 1
POINTS 10000 float
-1.0 -1.0 0.0
-0.9797979797979798 -1.0 0.0
-0.9595959595959596 -1.0 0.0
-0.9393939393939394 -1.0 0.0
-0.9191919191919192 -1.0 0.0
-0.898989898989899 -1.0 0.0
-0.8787878787878788 -1.0 0.0
-0.8585858585858586 -1.0 0.0
-0.8383838383838383 -1.0 0.0
-0.8181818181818181 -1.0 0.0
-0.797979797979798 -1.0 0.0
-0.7777777777777778 -1.0 0.0
-0.7575757575757576 -1.0 0.0
-0.7373737373737373 -1.0 0.0
-0.7171717171717171 -1.0 0.0
-0.696969696969697 -1.0 0.0
-0.6767676767676767 -1.0 0.0
-0.6565656565656566 -1.0 0.0
-0.6363636363636364 -1.0 0.0
-0.6161616161616161 -1.0 0.0
-0.5959595959595959 -1.0 0.0
-0.5757575757575757 -1.0 0.0
-0.5555555555555556 -1.0 0.0
-0.5353535353535352 -1.0 0.0
-0.5151515151515151 -1.0 0.0
-0.4949494949494949 -1.0 0.0
-0.4747474747474747 -1.0 0.0
-0.4545454545454545 -1.0 0.0
-0.43434343434343425 -1.0 0.0
-0.41414141414141414 -1.0 0.0
-0.3939393939393939 -1.0 0.0
-0.3737373737373737 -1.0 0.0
-0.3535353535353535 -1.0 0.0
-0.33333333333333326 -1.0 0.0
-0.31313131313131304 -1.0 0.0
-0.2929292929292928 -1.0 0.0
-0.2727272727272727 -1.0 0.0
-0.2525252525252525 -1.0 0.0
-0.23232323232323226 -1.0 0.0
-0.21212121212121204 -1.0 0.0
-0.19191919191919182 -1.0 0.0
-0.1717171717171716 -1.0 0.0
-0.1515151515151515 -1.0 0.0
-0.13131313131313127 -1.0 0.0
-0.11111111111111105 -1.0 0.0
-0.09090909090909083 -1.0 0.0
-0.07070707070707061 -1.0 0.0
-0.050505050505050386 -1.0 0.0
-0.030303030303030276 -1.0 0.0
-0.010101010101010055 -1.0 0.0
0.010101010101010166 -1.0 0.0
0.030303030303030498 -1.0 0.0
0.05050505050505061 -1.0 0.0
0.07070707070707072 -1.0 0.0
0.09090909090909105 -1.0 0.0
0.11111111111111116 -1.0 0.0
0.1313131313131315 -1.0 0.0
0.1515151515151516 -1.0 0.0
0.1717171717171717 -1.0 0.0
0.19191919191919204 -1.0 0.0
0.21212121212121215 -1.0 0.0
0.2323232323232325 -1.0 0.0
0.2525252525252526 -1.0 0.0
0.27272727272727293 -1.0 0.0
0.29292929292929304 -1.0 0.0
0.31313131313131315 -1.0 0.0
0.3333333333333335 -1.0 0.0
0.3535353535353536 -1.0 0.0
0.3737373737373739 -1.0 0.0
0.39393939393939403 -1.0 0.0
0.41414141414141437 -1.0 0.0
0.4343434343434345 -1.0 0.0
0.4545454545454546 -1.0 0.0
0.4747474747474749 -1.0 0.0
0.49494949494949503 -1.0 0.0
0.5151515151515154 -1.0 0.0
0.5353535353535355 -1.0 0.0
0.5555555555555556 -1.0 0.0
0.5757575757575759 -1.0 0.0
0.595959595959596 -1.0 0.0
0.6161616161616164 -1.0 0.0
0.6363636363636365 -1.0 0.0
0.6565656565656568 -1.0 0.0
0.6767676767676769 -1.0 0.0
0.696969696969697 -1.0 0.0
0.7171717171717173 -1.0 0.0
0.7373737373737375 -1.0 0.0
0.7575757575757578 -1.0 0.0
0.7777777777777779 -1.0 0.0
0.7979797979797982 -1.0 0.0
0.8181818181818183 -1.0 0.0
0.8383838383838385 -1.0 0.0
0.8585858585858588 -1.0 0.0
0.8787878787878789 -1.0 0.0
0.8989898989898992 -1.0 0.0
0.9191919191919193 -1.0 0.0
0.9393939393939394 -1.0 0.0
0.9595959595959598 -1.0 0.0
0.9797979797979799 -1.0 0.0
1.0 -1.0 0.0
-1.0 -0.9797979797979798 0.0
-0.9797979797979798 -0.9797979797979798 0.0
-0.9595959595959596 -0.9797979797979798 0.0
-0.9393939393939394 -0.9797979797979798 0.0
-0.9191919191919192 -0.9797979797979798 0.0
-0.898989898989899 -0.9797979797979798 0.0
-0.8787878787878788 -0.9797979797979798 0.0
-0.8585858585858586 -0.9797979797979798 0.0
-0.8383838383838383 -0.9797979797979798 0.0
-0.8181818181818181 -0.9797979797979798 0.0
-0.797979797979798 -0.9797979797979798 0.0
-0.7777777777777778 -0.9797979797979798 0.0
-0.7575757575757576 -0.9797979797979798 0.0
-0.7373737373737373 -0.9797979797979798 0.0
-0.7171717171717171 -0.9797979797979798 0.0
-0.696969696969697 -0.9797979797979798 0.0
-0.6767676767676767 -0.9797979797979798 0.0
-0.6565656565656566 -0.9797979797979798 0.0
-0.6363636363636364 -0.9797979797979798 0.0
-0.6161616161616161 -0.9797979797979798 0.0
-0.5959595959595959 -0.9797979797979798 0.0
-0.5757575757575757 -0.9797979797979798 0.0
-0.5555555555555556 -0.9797979797979798 0.0
-0.5353535353535352 -0.9797979797979798 0.0
-0.5151515151515151 -0.9797979797979798 0.0
-0.4949494949494949 -0.9797979797979798 0.0
-0.4747474747474747 -0.9797979797979798 0.0
-0.4545454545454545 -0.9797979797979798 0.0
-0.43434343434343425 -0.9797979797979798 0.0
-0.41414141414141414 -0.9797979797979798 0.0
-0.3939393939393939 -0.9797979797979798 0.0
-0.3737373737373737 -0.9797979797979798 0.0
-0.3535353535353535 -0.9797979797979798 0.0
-0.33333333333333326 -0.9797979797979798 0.0
-0.31313131313131304 -0.9797979797979798 0.0
-0.2929292929292928 -0.9797979797979798 0.0
-0.2727272727272727 -0.9797979797979798 0.0
-0.2525252525252525 -0.9797979797979798 0.0
-0.23232323232323226 -0.9797979797979798 0.0
-0.21212121212121204 -0.9797979797979798 0.0
-0.19191919191919182 -0.9797979797979798 0.0
-0.1717171717171716 -0.9797979797979798 0.0
-0.1515151515151515 -0.9797979797979798 0.0
-0.13131313131313127 -0.9797979797979798 0.0
-0.11111111111111105 -0.9797979797979798 0.0
-0.09090909090909083 -0.9797979797979798 0.0
-0.07070707070707061 -0.9797979797979798 0.0
-0.050505050505050386 -0.9797979797979798 0.0
-0.030303030303030276 -0.9797979797979798 0.0
-0.010101010101010055 -0.9797979797979798 0.0
0.010101010101010166 -0.9797979797979798 0.0
0.030303030303030498 -0.9797979797979798 0.0
0.05050505050505061 -0.9797979797979798 0.0
0.07070707070707072 -0.9797979797979798 0.0
0.09090909090909105 -0.9797979797979798 0.0
0.11111111111111116 -0.9797979797979798 0.0
0.1313131313131315 -0.9797979797979798 0.0
0.1515151515151516 -0.9797979797979798 0.0
0.1717171717171717 -0.9797979797979798 0.0
0.19191919191919204 -0.9797979797979798 0.0
0.21212121212121215 -0.9797979797979798 0.0
0.2323232323232325 -0.9797979797979798 0.0
0.2525252525252526 -0.9797979797979798 0.0
0.27272727272727293 -0.9797979797979798 0.0
0.29292929292929304 -0.9797979797979798 0.0
0.31313131313131315 -0.9797979797979798 0.0
0.3333333333333335 -0.9797979797979798 0.0
0.3535353535353536 -0.9797979797979798 0.0
0.3737373737373739 -0.9797979797979798 0.0
0.39393939393939403 -0.9797979797979798 0.0
0.41414141414141437 -0.9797979797979798 0.0
0.4343434343434345 -0.9797979797979798 0.0
0.4545454545454546 -0.9797979797979798 0.0
0.4747474747474749 -0.9797979797979798 0.0
0.49494949494949503 -0.9797979797979798 0.0
0.5151515151515154 -0.9797979797979798 0.0
0.5353535353535355 -0.9797979797979798 0.0
0.5555555555555556 -0.9797979797979798 0.0
0.5757575757575759 -0.9797979797979798 0.0
0.595959595959596 -0.9797979797979798 0.0
0.6161616161616164 -0.9797979797979798 0.0
0.6363636363636365 -0.9797979797979798 0.0
0.6565656565656568 -0.9797979797979798 0.0
0.6767676767676769 -0.9797979797979798 0.0
0.696969696969697 -0.9797979797979798 0.0
0.7171717171717173 -0.9797979797979798 0.0
0.7373737373737375 -0.9797979797979798 0.0
0.7575757575757578 -0.9797979797979798 0.0
0.7777777777777779 -0.9797979797979798 0.0
0.7979797979797982 -0.9797979797979798 0.0
0.8181818181818183 -0.9797979797979798 0.0
0.8383838383838385 -0.9797979797979798 0.0
0.8585858585858588 -0.9797979797979798 0.0
0.8787878787878789 -0.9797979797979798 0.0
0.8989898989898992 -0.9797979797979798 0.0
0.9191919191919193 -0.9797979797979798 0.0
0.9393939393939394 -0.9797979797979798 0.0
0.9595959595959598 -0.9797979797979798 0.0
0.9797979797979799 -0.9797979797979798 0.0
1.0 -0.9797979797979798 0.0
-1.0 -0.9595959595959596 0.0
-0.9797979797979798 -0.9595959595959596 0.0
-0.9595959595959596 -0.9595959595959596 0.0
-0.9393939393939394 -0.9595959595959596 0.0
-0.9191919191919192 -0.9595959595959596 0.0
-0.898989898989899 -0.9595959595959596 0.0
-0.8787878787878788 -0.9595959595959596 0.0
-0.8585858585858586 -0.9595959595959596 0.0
-0.8383838383838383 -0.9595959595959596 0.0
-0.8181818181818181 -0.9595959595959596 0.0
-0.797979797979798 -0.9595959595959596 0.0
-0.7777777777777778 -0.9595959595959596 0.0
-0.7575757575757576 -0.9595959595959596 0.0
-0.7373737373737373 -0.9595959595959596 0.0
-0.7171717171717171 -0.9595959595959596 0.0
-0.696969696969697 -0.9595959595959596 0.0
-0.6767676767676767 -0.9595959595959596 0.0
-0.6565656565656566 -0.9595959595959596 0.0
-0.6363636363636364 -0.9595959595959596 0.0
-0.6161616161616161 -0.9595959595959596 0.0
-0.5959595959595959 -0.9595959595959596 0.0
-0.5757575757575757 -0.9595959595959596 0.0
-0.5555555555555556 -0.9595959595959596 0.0
-0.5353535353535352 -0.9595959595959596 0.0
-0.5151515151515151 -0.9595959595959596 0.0
-0.4949494949494949 -0.9595959595959596 0.0
-0.4747474747474747 -0.9595959595959596 0.0
-0.4545454545454545 -0.9595959595959596 0.0
-0.43434343434343425 -0.9595959595959596 0.0
-0.41414141414141414 -0.9595959595959596 0.0
-0.3939393939393939 -0.9595959595959596 0.0
-0.3737373737373737 -0.9595959595959596 0.0
-0.3535353535353535 -0.9595959595959596 0.0
-0.33333333333333326 -0.9595959595959596 0.0
-0.31313131313131304 -0.9595959595959596 0.0
-0.2929292929292928 -0.9595959595959596 0.0
-0.2727272727272727 -0.9595959595959596 0.0
-0.2525252525252525 -0.9595959595959596 0.0
-0.23232323232323226 -0.9595959595959596 0.0
-0.21212121212121204 -0.9595959595959596 0.0
-0.19191919191919182 -0.9595959595959596 0.0
-0.1717171717171716 -0.9595959595959596 0.0
-0.1515151515151515 -0.9595959595959596 0.0
-0.13131313131313127 -0.9595959595959596 0.0
-0.11111111111111105 -0.9595959595959596 0.0
-0.09090909090909083 -0.9595959595959596 0.0
-0.07070707070707061 -0.9595959595959596 0.0
-0.050505050505050386 -0.9595959595959596 0.0
-0.030303030303030276 -0.9595959595959596 0.0
-0.010101010101010055 -0.9595959595959596 0.0
0.010101010101010166 -0.9595959595959596 0.0
0.030303030303030498 -0.9595959595959596 0.0
0.05050505050505061 -0.9595959595959596 0.0
0.07070707070707072 -0.9595959595959596 0.0
0.09090909090909105 -0.9595959595959596 0.0
0.11111111111111116 -0.9595959595959596 0.0
0.1313131313131315 -0.9595959595959596 0.0
0.1515151515151516 -0.9595959595959596 0.0
0.1717171717171717 -0.9595959595959596 0.0
0.19191919191919204 -0.9595959595959596 0.0
0.21212121212121215 -0.9595959595959596 0.0
[...]
POINT_DATA 10000
SCALARS u float 1
LOOKUP_TABLE default
0.25802546739578247
0.30109989643096924
0.3391951024532318
0.37193626165390015
0.39901214838027954
0.42017289996147156
0.435226708650589
0.4440385401248932
0.44653552770614624
0.44270059466362
0.4325844347476959
0.41630157828330994
0.39403727650642395
0.3660464882850647
0.332659512758255
0.2942794859409332
0.2513810992240906
0.20450252294540405
0.15423956513404846
0.10123660415410995
0.04617323726415634
-0.01023738831281662
-0.06725236028432846
-0.12409283965826035
-0.17993289232254028
-0.2338920533657074
-0.2850225865840912
-0.3323242962360382
-0.3747641444206238
-0.4113224744796753
-0.4410535395145416
-0.46314987540245056
-0.47700515389442444
-0.48225852847099304
-0.47882595658302307
-0.4668969213962555
-0.4469103515148163
-0.4195118844509125
-0.3854912519454956
-0.34572455286979675
-0.3011106550693512
-0.2525295913219452
-0.20081251859664917
-0.14672920107841492
-0.09099537879228592
-0.03428860753774643
0.022728614509105682
0.07938385754823685
0.13497528433799744
0.18875747919082642
0.23994126915931702
0.28769710659980774
0.3311792314052582
0.36955156922340393
0.40202558040618896
0.42789426445961
0.4465723931789398
0.45762884616851807
0.46081218123435974
0.4560711085796356
0.4435512125492096
0.4235961139202118
0.39671531319618225
0.36354467272758484
0.32480013370513916
0.28121960163116455
0.23353102803230286
0.18242160975933075
0.1285398006439209
0.07251273840665817
0.01497245579957962
-0.04340389370918274
-0.10187119990587234
-0.159591406583786
-0.21563181281089783
-0.2689824104309082
-0.31857872009277344
-0.3633502721786499
-0.4022715985774994
-0.4344213604927063
-0.4590354263782501
-0.475553959608078
-0.4836486279964447
-0.483239084482193
-0.4744856059551239
-0.45776084065437317
-0.43362390995025635
-0.40276089310646057
-0.3659435510635376
-0.32396775484085083
-0.27761778235435486
-0.22762158513069153
-0.17462784051895142
-0.11919041723012924
-0.06177259236574173
-0.0027552470564842224
0.05753835290670395
0.11881213635206223
0.18077325820922852
0.24309518933296204
0.31113332509994507
0.3588419258594513
0.4014630615711212
0.4385359287261963
0.46966445446014404
0.4945116341114044
0.5128009915351868
0.5243107676506042
0.5288720726966858
0.5263752937316895
0.5167660117149353
0.5000515580177307
0.47630760073661804
0.44567880034446716
0.40839117765426636
0.3647509217262268
0.31515732407569885
0.2600974142551422
0.2001589834690094
0.13602566719055176
0.06848370283842087
-0.0015740171074867249
-0.07314563542604446
-0.14510837197303772
-0.21622642874717712
-0.28515100479125977
-0.35044971108436584
-0.41065362095832825
-0.46432045102119446
-0.5101107954978943
-0.5468668341636658
-0.5736779570579529
-0.5899346470832825
-0.5953463912010193
-0.5899472236633301
-0.5740769505500793
-0.5483437180519104
-0.513573944568634
-0.4707529842853546
-0.42096272110939026
-0.36532026529312134
-0.30492857098579407
-0.24083688855171204
-0.1740255355834961
-0.10540690273046494
-0.03584075719118118
0.03384088724851608
0.10280489176511765
0.17019638419151306
0.2351241409778595
0.29666072130203247
0.3538537323474884
0.405752032995224
0.45143452286720276
0.4900510609149933
0.52085280418396
0.5432243943214417
0.556709885597229
0.5610269904136658
0.5560795068740845
0.5419630408287048
0.5189612507820129
0.48753055930137634
0.4482833743095398
0.40194588899612427
0.3493238389492035
0.29125991463661194
0.22860616445541382
0.16221541166305542
0.09294630587100983
0.021687529981136322
-0.05061826854944229
-0.12294929474592209
-0.19419634342193604
-0.2631612718105316
-0.32858994603157043
-0.38920021057128906
-0.44373276829719543
-0.49101129174232483
-0.5299955010414124
-0.5598328709602356
-0.5798991322517395
-0.5898268222808838
-0.5895159244537354
-0.5791261196136475
-0.5590632557868958
-0.5299398899078369
-0.49253472685813904
-0.44774559140205383
-0.3965385854244232
-0.3398938477039337
-0.2787677049636841
-0.2140544056892395
-0.14656317234039307
-0.07701561599969864
-0.0060423389077186584
0.06579496711492538
0.13798224925994873
0.210026353597641
0.2814274728298187
0.3590649664402008
0.41158631443977356
0.45899394154548645
0.500733494758606
0.5363156795501709
0.5653130412101746
0.5873537659645081
0.6021159291267395
0.6093304753303528
0.6087689995765686
0.6002575755119324
0.5836734175682068
0.5589524507522583
0.5260987281799316
0.4851993918418884
0.43643608689308167
0.38010373711586
0.31663432717323303
0.24661391973495483
0.17080643773078918
0.09017147868871689
0.005877800285816193
-0.08068685978651047
-0.16793039441108704
-0.2540855407714844
-0.33726176619529724
-0.4155266582965851
-0.48700347542762756
-0.5499674081802368
-0.6029414534568787
-0.6447635889053345
-0.6746205687522888
-0.6920565962791443
-0.6969537138938904
-0.6895017027854919
-0.6701629161834717
-0.6396277546882629
-0.5987812280654907
-0.5486573576927185
-0.49040350317955017
-0.4252260625362396
-0.35435423254966736
-0.27900001406669617
-0.2003350555896759
-0.11948101967573166
-0.0375194326043129
0.04449596256017685
0.12551358342170715
0.20446956157684326
0.2802809774875641
0.3518519103527069
0.4180934429168701
0.4779527187347412
0.5304450392723083
0.5746914744377136
0.6099388599395752
0.6355813145637512
0.6511727571487427
0.656429648399353
0.6512300372123718
0.6356233954429626
0.6098238825798035
0.5742121934890747
0.5293334126472473
0.4758854806423187
0.41469696164131165
0.3467029631137848
0.2729208767414093
0.1944275200366974
0.1123557761311531
0.027896128594875336
-0.05769813805818558
-0.14310133457183838
-0.22692182660102844
-0.3077211081981659
-0.38404127955436707
-0.45444586873054504
-0.5175665616989136
-0.5721533894538879
-0.6171206831932068
-0.651584804058075
-0.6748979687690735
-0.6866660118103027
-0.6867576837539673
-0.675302267074585
-0.6526764035224915
-0.6194800734519958
-0.5765095353126526
-0.5247146487236023
-0.46516355872154236
-0.3989875614643097
-0.3273390829563141
-0.2513575255870819
-0.17212501168251038
-0.09065414220094681
-0.007874555885791779
0.07536666840314865
0.15828430652618408
0.2401454746723175
0.3202473223209381
0.4006962478160858
0.4580729603767395
0.5103947520256042
0.5570069551467896
0.5973244905471802
0.6308184266090393
0.6570133566856384
0.6754809617996216
0.6858325600624084
0.6877146363258362
0.680812656879425
0.6648473143577576
0.6395911574363708
0.6048761606216431
0.5606189966201782
0.506847620010376
0.44374093413352966
0.3716717064380646
0.29125314950942993
0.2033892273902893
0.10931066423654556
0.010591693222522736
-0.09085842221975327
-0.19285115599632263
-0.2930041253566742
-0.3888719379901886
-0.4780902564525604
-0.5585155487060547
-0.6283411979675293
-0.6861709952354431
-0.7310369610786438
-0.7623794674873352
-0.7800002694129944
-0.7839967012405396
-0.774708092212677
-0.7526628375053406
-0.7185537815093994
-0.6732087731361389
-0.6175876259803772
-0.5527639389038086
-0.47991088032722473
-0.40028077363967896
-0.31517380475997925
-0.2259182631969452
-0.1338484287261963
-0.04029654711484909
0.05340873450040817
0.14593860507011414
0.23596733808517456
0.32217320799827576
0.4032664895057678
0.47801247239112854
0.5452658534049988
0.6040007472038269
0.6533368229866028
0.6925486922264099
0.7210667133331299
0.7384790778160095
0.7445161938667297
0.7390446066856384
0.7220690846443176
0.6937332153320312
0.6543291211128235
0.6043177247047424
0.5443382263183594
0.47521474957466125
0.3979550302028656
0.31373482942581177
0.2238704264163971
0.12979868054389954
0.0330488383769989
-0.06478423625230789
-0.1620578169822693
-0.2571134567260742
-0.3483026921749115
-0.43402665853500366
-0.5127674341201782
-0.5831207633018494
-0.6438385248184204
-0.6938498020172119
-0.73228919506073
-0.7585097551345825
-0.7721053957939148
-0.7729000449180603
-0.7609620690345764
-0.7365947365760803
-0.7003259062767029
-0.6528964638710022
-0.5952397584915161
-0.5284534692764282
-0.4537631571292877
-0.37248533964157104
-0.28598129749298096
-0.1956149935722351
-0.10271549969911575
-0.008548922836780548
0.08569904416799545
0.1789296567440033
0.27013006806373596
0.3583696484565735
0.4350844919681549
0.4972119927406311
0.5544283390045166
0.6059761643409729
0.651164710521698
0.6893572211265564
0.7199686169624329
0.7424516081809998
0.7562887072563171
0.7609860301017761
0.7560687065124512
0.7410874962806702
0.7156224846839905
0.679311215877533
0.6318762898445129
0.5731757283210754
0.5032681226730347
0.42248836159706116
0.33153289556503296
0.23153388500213623
0.12411131709814072
0.011383093893527985
-0.10409627109766006
-0.21945881843566895
-0.3317091166973114
-0.4379265606403351
-0.5354761481285095
-0.6221613883972168
-0.6963117122650146
-0.7567952871322632
-0.8029763102531433
-0.8346217274665833
-0.8518107533454895
-0.854838490486145
-0.8441469073295593
-0.8202804923057556
-0.7838600277900696
-0.735591471195221
-0.6762719750404358
-0.6068135499954224
-0.5282613635063171
-0.44179561734199524
-0.3487301170825958
-0.2504982352256775
-0.14862245321273804
-0.0446956530213356
0.05964890867471695
0.162765771150589
0.2630214989185333
0.35883083939552307
0.4486922323703766
0.5312241315841675
0.6051995158195496
0.6695701479911804
0.723470151424408
0.7662164568901062
0.7972891330718994
0.8163133859634399
0.8230372071266174
0.8173155188560486
0.7991095781326294
0.7684941291809082
0.7256782054901123
0.6710381507873535
0.6051546931266785
0.52884441614151
0.4431813061237335
0.34949633479118347
0.2493499219417572
0.14449170231819153
0.03679830580949783
-0.0717916265130043
-0.17933723330497742
-0.28394630551338196
-0.38381674885749817
-0.47726908326148987
-0.5627695322036743
-0.6389433145523071
-0.7045944333076477
-0.7587076425552368
-0.8004630208015442
-0.8292359113693237
-0.8446016907691956
-0.846339762210846
-0.8344392776489258
-0.8090966939926147
-0.7707263231277466
-0.7199655771255493
-0.657666027545929
-0.584896981716156
-0.5029208064079285
-0.41316768527030945
-0.3171927034854889
-0.21662971377372742
-0.11313361674547195
-0.008335359394550323
0.09621015936136246
0.19904828071594238
0.2988604009151459
0.3944690525531769
0.46150460839271545
0.5281274318695068
0.5900638699531555
0.646453320980072
0.6964895129203796
0.7394220232963562
0.7745460867881775
0.8011835217475891
0.8186784386634827
0.8263824582099915
0.8236494660377502
0.8098371028900146
0.7843252420425415
0.746536910533905
0.6959971785545349
0.6323968768119812
0.5556989312171936
0.4662548899650574
0.36492419242858887
0.25318220257759094
0.13316985964775085
0.0076563432812690735
-0.12009292095899582
-0.24655267596244812
-0.3682153522968292
-0.4818762242794037
-0.5848585963249207
-0.6751309633255005
-0.7513318657875061
-0.8127027153968811
-0.8589751124382019
-0.8902280926704407
-0.9067678451538086
-0.9090245962142944
-0.8974844813346863
-0.8726542592048645
-0.8350514769554138
-0.7852221131324768
-0.7237773537635803
-0.651430606842041
-0.5690487027168274
-0.4776841700077057
-0.3786010146141052
-0.273275226354599
-0.16337695717811584
-0.05073147267103195
0.06273246556520462
0.17504504323005676
0.2842622697353363
0.3885251581668854
0.48612216114997864
0.5755341053009033
0.6554607152938843
0.7248326539993286
0.7828048467636108
0.8287289142608643
0.8621229529380798
0.8826364278793335
0.890019416809082
0.8841071128845215
0.8648164868354797
0.8321612477302551
0.7862823605537415
0.7274996638298035
0.6563627123832703
0.573703944683075
0.48068302869796753
0.3787912428379059
0.26982706785202026
0.15583065152168274
0.03899354487657547
-0.07844928652048111
-0.19430950284004211
-0.3065222203731537
-0.41319310665130615
-0.512619137763977
-0.603298544883728
-0.6839218735694885
-0.7533679604530334
-0.8106939792633057
-0.8551308512687683
-0.8860768675804138
-0.9030953645706177
-0.9059162735939026
-0.8944411873817444
-0.8687543272972107
-0.8291383385658264
-0.7760931849479675
-0.710359513759613
-0.6329264044761658
-0.5450429320335388
-0.44820234179496765
-0.34411168098449707
-0.23464283347129822
-0.12176705151796341
-0.007476828992366791
0.10628568381071091
0.2177000343799591
0.3251201808452606
0.4271107614040375
0.47947195172309875
0.5501812696456909
0.6165091395378113
0.677480161190033
0.7321721911430359
0.7797111868858337
0.819259524345398
0.849998414516449
0.8711214065551758
0.8818116188049316
0.8812418580055237
0.8685706257820129
0.8429678082466125
0.8036513924598694
0.7499602437019348
0.6814583539962769
0.5980764031410217
0.5002691745758057
0.38917937874794006
0.2667454481124878
0.13572633266448975
-0.00041446834802627563
-0.13774949312210083
-0.27223798632621765
-0.40008530020713806
-0.5180550813674927
-0.6236541271209717
-0.7151832580566406
-0.7916722297668457
-0.8527393937110901
-0.8984285593032837
-0.9290481209754944
-0.9450411200523376
-0.9468939900398254
-0.935079038143158
-0.9100289940834045
-0.8721442818641663
-0.8218183517456055
-0.7594864368438721
-0.6856774687767029
-0.6010840535163879
-0.5066173076629639
-0.4034591615200043
-0.2930815517902374
-0.1772426962852478
-0.05794135481119156
0.06265025585889816
0.18228685855865479
0.29874658584594727
0.40993207693099976
0.5139435529708862
0.6091341376304626
0.6941351294517517
0.7678478360176086
0.8294256329536438
0.8782268166542053
0.913774311542511
0.9357113242149353
0.9437667727470398
0.9377396106719971
0.9175002574920654
0.8830149173736572
0.8343906998634338
0.7719319462776184
0.6962136626243591
0.6081390380859375
0.5089914202690125
0.40043607354164124
0.28448686003685
0.16341885924339294
0.0396566241979599
-0.08435989171266556
-0.2062908411026001
-0.32397758960723877
-0.43549394607543945
-0.5391541123390198
-0.6335051655769348
-0.7173068523406982
-0.7895098924636841
-0.8492310047149658
-0.8957440257072449
-0.9284622669219971
-0.9469359517097473
-0.9508470892906189
-0.9400214552879333
-0.9144372940063477
-0.8742512464523315
-0.8198300004005432
-0.7517848610877991
-0.6710061430931091
-0.5786893963813782
-0.47634461522102356
-0.3657796382904053
-0.24905654788017273
-0.1284189522266388
-0.006195373833179474
0.1153087243437767
0.23390895128250122
0.34764012694358826
0.4548158347606659
0.488746702671051
0.5629880428314209
0.6332181692123413
0.6983484625816345
0.7573312520980835
0.809156596660614
0.8528451323509216
0.8874263167381287
0.9119251370429993
0.9253504872322083
0.9266831874847412
0.9148876667022705
0.8889336585998535
0.8478630185127258
0.7908816933631897
0.717504620552063
0.627736508846283
0.5222672820091248
0.4026464521884918
0.27137741446495056
0.13185614347457886
-0.011833824217319489
-0.1552886664867401
-0.29421600699424744
-0.4248250424861908
-0.5440928339958191
-0.6498780250549316
-0.7408770322799683
-0.816484272480011
-0.8766122460365295
-0.9215037822723389
-0.9515818953514099
-0.967327892780304
-0.9692087769508362
-0.9576355814933777
-0.9329494833946228
-0.8954381346702576
-0.845369815826416
-0.7830424904823303
-0.7088497877120972
-0.6233521103858948
-0.5273519158363342
-0.42195579409599304
-0.30860671401023865
-0.18909475207328796
-0.06551443785429001
0.05981866270303726
0.18447694182395935
0.30605244636535645
0.4222733676433563
0.5310981869697571
0.6307742595672607
0.7198553681373596
0.7971906065940857
0.8618898987770081
0.91327303647995
0.9508181214332581
0.9741201996803284
0.9828535318374634
0.9767652153968811
0.9556824564933777
0.919546902179718
0.8684726357460022
0.8028156757354736
0.7232484817504883
0.6308164000511169
0.5269753932952881
0.41357555985450745
0.29280558228492737
0.16708922386169434
0.03895803540945053
-0.08908141404390335
-0.21465447545051575
-0.3356008529663086
-0.4500119388103485
-0.5562365055084229
-0.6528622508049011
-0.7386921048164368
-0.812715470790863
-0.8740830421447754
-0.9220852255821228
-0.9561397433280945
-0.9757803082466125
-0.980654776096344
-0.9705271124839783
-0.9452964663505554
-0.9050217866897583
-0.8499581813812256
-0.7806049585342407
-0.6977498531341553
-0.6025181412696838
-0.4964008033275604
-0.38125261664390564
-0.25926050543785095
-0.13287317752838135
-0.004689626395702362
0.1226726695895195
0.2467140555381775
0.36517661809921265
0.47614020109176636
0.4893324673175812
0.5664105415344238
0.6399018168449402
0.7086015343666077
0.7713316082954407
0.8269362449645996
0.8742793798446655
0.9122238755226135
0.9396169781684875
0.955284833908081
0.9580192565917969
0.9466010332107544
0.9198403358459473
0.8766599297523499
0.8162292838096619
0.7381392121315002
0.6426159143447876
0.5307296514511108
0.40454909205436707
0.26715850830078125
0.12250500172376633
-0.02492714673280716
-0.17056646943092346
-0.31019753217697144
-0.4403092563152313
-0.5582743287086487
-0.6623600721359253
-0.7516181468963623
-0.8257043361663818
-0.884685754776001
-0.9288730025291443
-0.9586840271949768
-0.974552571773529
-0.9768669009208679
-0.9659462571144104
-0.9420353770256042
-0.9053286910057068
-0.8560057878494263
-0.7942844033241272
-0.7204866409301758
-0.6351135969161987
-0.5389155745506287
-0.43295779824256897
-0.31866076588630676
-0.19780215620994568
-0.07248345762491226
0.05495124310255051
0.18203195929527283
0.30628934502601624
0.42537882924079895
0.5371828079223633
0.6398667097091675
0.7318970561027527
0.812033474445343
0.8792920708656311
0.9328939318656921
0.9722180962562561
0.9967621564865112
1.0061174631118774
0.9999643564224243
0.9780958294868469
0.9404653906822205
0.8872527480125427
0.8189406991004944
0.7363788485527039
0.6408278346061707
0.533955454826355
0.417789489030838
0.29462751746177673
0.16692432761192322
0.03717203438282013
-0.09220600873231888
-0.218931645154953
-0.3409278094768524
-0.45634332299232483
-0.5635554194450378
-0.6611649394035339
-0.7479704022407532
-0.8229551911354065
-0.8852605819702148
-0.9341662526130676
-0.9690778851509094
-0.9895133376121521
-0.9950945973396301
-0.9855572581291199
-0.9607552886009216
-0.9206924438476562
-0.8655559420585632
-0.7957656979560852
-0.7120344638824463
-0.6154171824455261
-0.5073586702346802
-0.38971301913261414
-0.26471567153930664
-0.13493257761001587
-0.003136150538921356
0.12783637642860413
0.25524502992630005
0.37659627199172974
0.4897741973400116
0.4814594089984894
0.5605468153953552
0.6365095973014832
0.7080258727073669
0.7737804651260376
0.8324639201164246
0.882769763469696
0.9233801960945129
0.9529589414596558
0.970143735408783
0.973553478717804
0.9618209600448608
0.9336608648300171
0.8879814743995667
0.8240495324134827
0.7416955828666687
0.6415336728096008
0.525143027305603
0.3951455056667328
0.2551189363002777
0.10933233052492142
-0.03766254335641861
-0.18148589134216309
-0.31831279397010803
-0.4451123774051666
-0.5597209334373474
-0.6607764363288879
-0.7475695610046387
-0.8198679089546204
-0.8777499794960022
-0.9214645028114319
-0.951328456401825
-0.9676561951637268
-0.9707189202308655
-0.9607287049293518
-0.9378425478935242
-0.9021893739700317
-0.853903591632843
-0.7931856513023376
-0.720358669757843
-0.6359389424324036
-0.5406962633132935
-0.4357069432735443
-0.3223792016506195
-0.20244842767715454
-0.07794458419084549
0.04888605326414108
0.17567241191864014
0.3000289797782898
0.41965875029563904
0.5324413180351257
0.6364917159080505
0.7301843762397766
0.8121523261070251
0.8812620639801025
0.9365772008895874
0.9773241281509399
1.002861738204956
1.012669563293457
1.0063607692718506
0.9837183952331543
0.9447550177574158
0.8897864818572998
0.8194993734359741
0.7349974513053894
0.6378021836280823
0.5298023223876953
0.4131588339805603
0.29018861055374146
0.16324609518051147
0.03464042395353317
-0.093426413834095
-0.21888205409049988
-0.33980128169059753
-0.45441678166389465
-0.561125636100769
-0.6584984660148621
-0.7452832460403442
-0.8204023241996765
-0.8829430937767029
-0.9321447610855103
-0.9673836827278137
-0.9881632924079895
-0.9940987229347229
-0.9849254488945007
-0.9604963660240173
-0.9208131432533264
-0.8660452961921692
-0.7965896725654602
-0.7131142616271973
-0.616624653339386
-0.5085088610649109
-0.3905732035636902
-0.2650319039821625
-0.13445886969566345
-0.0016837790608406067
0.13035854697227478
0.2587932348251343
0.380979984998703
0.4946538507938385
0.465558260679245
0.5457066893577576
0.6232090592384338
0.696628212928772
0.7645079493522644
0.8253763318061829
0.8777456879615784
0.9201114773750305
0.9509468674659729
0.968716561794281