# vtk DataFile Version 3.0
2D PINN Solution
ASCII
DATASET STRUCTURED_GRID
DIMENSIONS 100 100 1
POINTS 10000 float
-1.0 -1.0 0.0
-0.9797979797979798 -1.0 0.0
-0.9595959595959596 -1.0 0.0
-0.9393939393939394 -1.0 0.0
-0.9191919191919192 -1.0 0.0
-0.898989898989899 -1.0 0.0
-0.8787878787878788 -1.0 0.0
-0.8585858585858586 -1.0 0.0
-0.8383838383838383 -1.0 0.0
-0.8181818181818181 -1.0 0.0
-0.797979797979798 -1.0 0.0
-0.7777777777777778 -1.0 0.0
-0.7575757575757576 -1.0 0.0
-0.7373737373737373 -1.0 0.0
-0.7171717171717171 -1.0 0.0
-0.696969696969697 -1.0 0.0
-0.6767676767676767 -1.0 0.0
-0.6565656565656566 -1.0 0.0
-0.6363636363636364 -1.0 0.0
-0.6161616161616161 -1.0 0.0
-0.5959595959595959 -1.0 0.0
-0.5757575757575757 -1.0 0.0
-0.5555555555555556 -1.0 0.0
-0.5353535353535352 -1.0 0.0
-0.5151515151515151 -1.0 0.0
-0.4949494949494949 -1.0 0.0
-0.4747474747474747 -1.0 0.0
-0.4545454545454545 -1.0 0.0
-0.43434343434343425 -1.0 0.0
-0.41414141414141414 -1.0 0.0
-0.3939393939393939 -1.0 0.0
-0.3737373737373737 -1.0 0.0
-0.3535353535353535 -1.0 0.0
-0.33333333333333326 -1.0 0.0
-0.31313131313131304 -1.0 0.0
-0.2929292929292928 -1.0 0.0
-0.2727272727272727 -1.0 0.0
-0.2525252525252525 -1.0 0.0
-0.23232323232323226 -1.0 0.0
-0.21212121212121204 -1.0 0.0
-0.19191919191919182 -1.0 0.0
-0.1717171717171716 -1.0 0.0
-0.1515151515151515 -1.0 0.0
-0.13131313131313127 -1.0 0.0
-0.11111111111111105 -1.0 0.0
-0.09090909090909083 -1.0 0.0
-0.07070707070707061 -1.0 0.0
-0.050505050505050386 -1.0 0.0
-0.030303030303030276 -1.0 0.0
-0.010101010101010055 -1.0 0.0
0.010101010101010166 -1.0 0.0
0.030303030303030498 -1.0 0.0
0.05050505050505061 -1.0 0.0
0.07070707070707072 -1.0 0.0
0.09090909090909105 -1.0 0.0
0.11111111111111116 -1.0 0.0
0.1313131313131315 -1.0 0.0
0.1515151515151516 -1.0 0.0
0.1717171717171717 -1.0 0.0
0.19191919191919204 -1.0 0.0
0.21212121212121215 -1.0 0.0
0.2323232323232325 -1.0 0.0
0.2525252525252526 -1.0 0.0
0.27272727272727293 -1.0 0.0
0.29292929292929304 -1.0 0.0
0.31313131313131315 -1.0 0.0
0.3333333333333335 -1.0 0.0
0.3535353535353536 -1.0 0.0
0.3737373737373739 -1.0 0.0
0.39393939393939403 -1.0 0.0
0.41414141414141437 -1.0 0.0
0.4343434343434345 -1.0 0.0
0.4545454545454546 -1.0 0.0
0.4747474747474749 -1.0 0.0
0.49494949494949503 -1.0 0.0
0.5151515151515154 -1.0 0.0
0.5353535353535355 -1.0 0.0
0.5555555555555556 -1.0 0.0
0.5757575757575759 -1.0 0.0
0.595959595959596 -1.0 0.0
0.6161616161616164 -1.0 0.0
0.6363636363636365 -1.0 0.0
0.6565656565656568 -1.0 0.0
0.6767676767676769 -1.0 0.0
0.696969696969697 -1.0 0.0
0.7171717171717173 -1.0 0.0
0.7373737373737375 -1.0 0.0
0.7575757575757578 -1.0 0.0
0.7777777777777779 -1.0 0.0
0.7979797979797982 -1.0 0.0
0.8181818181818183 -1.0 0.0
0.8383838383838385 -1.0 0.0
0.8585858585858588 -1.0 0.0
0.8787878787878789 -1.0 0.0
0.8989898989898992 -1.0 0.0
0.9191919191919193 -1.0 0.0
0.9393939393939394 -1.0 0.0
0.9595959595959598 -1.0 0.0
0.9797979797979799 -1.0 0.0
1.0 -1.0 0.0
-1.0 -0.9797979797979798 0.0
-0.9797979797979798 -0.9797979797979798 0.0
-0.9595959595959596 -0.9797979797979798 0.0
-0.9393939393939394 -0.9797979797979798 0.0
-0.9191919191919192 -0.9797979797979798 0.0
-0.898989898989899 -0.9797979797979798 0.0
-0.8787878787878788 -0.9797979797979798 0.0
-0.8585858585858586 -0.9797979797979798 0.0
-0.8383838383838383 -0.9797979797979798 0.0
-0.8181818181818181 -0.9797979797979798 0.0
-0.797979797979798 -0.9797979797979798 0.0
-0.7777777777777778 -0.9797979797979798 0.0
-0.7575757575757576 -0.9797979797979798 0.0
-0.7373737373737373 -0.9797979797979798 0.0
-0.7171717171717171 -0.9797979797979798 0.0
-0.696969696969697 -0.9797979797979798 0.0
-0.6767676767676767 -0.9797979797979798 0.0
-0.6565656565656566 -0.9797979797979798 0.0
-0.6363636363636364 -0.9797979797979798 0.0
-0.6161616161616161 -0.9797979797979798 0.0
-0.5959595959595959 -0.9797979797979798 0.0
-0.5757575757575757 -0.9797979797979798 0.0
-0.5555555555555556 -0.9797979797979798 0.0
-0.5353535353535352 -0.9797979797979798 0.0
-0.5151515151515151 -0.9797979797979798 0.0
-0.4949494949494949 -0.9797979797979798 0.0
-0.4747474747474747 -0.9797979797979798 0.0
-0.4545454545454545 -0.9797979797979798 0.0
-0.43434343434343425 -0.9797979797979798 0.0
-0.41414141414141414 -0.9797979797979798 0.0
-0.3939393939393939 -0.9797979797979798 0.0
-0.3737373737373737 -0.9797979797979798 0.0
-0.3535353535353535 -0.9797979797979798 0.0
-0.33333333333333326 -0.9797979797979798 0.0
-0.31313131313131304 -0.9797979797979798 0.0
-0.2929292929292928 -0.9797979797979798 0.0
-0.2727272727272727 -0.9797979797979798 0.0
-0.2525252525252525 -0.9797979797979798 0.0
-0.23232323232323226 -0.9797979797979798 0.0
-0.21212121212121204 -0.9797979797979798 0.0
-0.19191919191919182 -0.9797979797979798 0.0
-0.1717171717171716 -0.9797979797979798 0.0
-0.1515151515151515 -0.9797979797979798 0.0
-0.13131313131313127 -0.9797979797979798 0.0
-0.11111111111111105 -0.9797979797979798 0.0
-0.09090909090909083 -0.9797979797979798 0.0
-0.07070707070707061 -0.9797979797979798 0.0
-0.050505050505050386 -0.9797979797979798 0.0
-0.030303030303030276 -0.9797979797979798 0.0
-0.010101010101010055 -0.9797979797979798 0.0
0.010101010101010166 -0.9797979797979798 0.0
0.030303030303030498 -0.9797979797979798 0.0
0.05050505050505061 -0.9797979797979798 0.0
0.07070707070707072 -0.9797979797979798 0.0
0.09090909090909105 -0.9797979797979798 0.0
0.11111111111111116 -0.9797979797979798 0.0
0.1313131313131315 -0.9797979797979798 0.0
0.1515151515151516 -0.9797979797979798 0.0
0.1717171717171717 -0.9797979797979798 0.0
0.19191919191919204 -0.9797979797979798 0.0
0.21212121212121215 -0.9797979797979798 0.0
0.2323232323232325 -0.9797979797979798 0.0
0.2525252525252526 -0.9797979797979798 0.0
0.27272727272727293 -0.9797979797979798 0.0
0.29292929292929304 -0.9797979797979798 0.0
0.31313131313131315 -0.9797979797979798 0.0
0.3333333333333335 -0.9797979797979798 0.0
0.3535353535353536 -0.9797979797979798 0.0
0.3737373737373739 -0.9797979797979798 0.0
0.39393939393939403 -0.9797979797979798 0.0
0.41414141414141437 -0.9797979797979798 0.0
0.4343434343434345 -0.9797979797979798 0.0
0.4545454545454546 -0.9797979797979798 0.0
0.4747474747474749 -0.9797979797979798 0.0
0.49494949494949503 -0.9797979797979798 0.0
0.5151515151515154 -0.9797979797979798 0.0
0.5353535353535355 -0.9797979797979798 0.0
0.5555555555555556 -0.9797979797979798 0.0
0.5757575757575759 -0.9797979797979798 0.0
0.595959595959596 -0.9797979797979798 0.0
0.6161616161616164 -0.9797979797979798 0.0
0.6363636363636365 -0.9797979797979798 0.0
0.6565656565656568 -0.9797979797979798 0.0
0.6767676767676769 -0.9797979797979798 0.0
0.696969696969697 -0.9797979797979798 0.0
0.7171717171717173 -0.9797979797979798 0.0
0.7373737373737375 -0.9797979797979798 0.0
0.7575757575757578 -0.9797979797979798 0.0
0.7777777777777779 -0.9797979797979798 0.0
0.7979797979797982 -0.9797979797979798 0.0
0.8181818181818183 -0.9797979797979798 0.0
0.8383838383838385 -0.9797979797979798 0.0
0.8585858585858588 -0.9797979797979798 0.0
0.8787878787878789 -0.9797979797979798 0.0
0.8989898989898992 -0.9797979797979798 0.0
0.9191919191919193 -0.9797979797979798 0.0
0.9393939393939394 -0.9797979797979798 0.0
0.9595959595959598 -0.9797979797979798 0.0
0.9797979797979799 -0.9797979797979798 0.0
1.0 -0.9797979797979798 0.0
-1.0 -0.9595959595959596 0.0
-0.9797979797979798 -0.9595959595959596 0.0
-0.9595959595959596 -0.9595959595959596 0.0
-0.9393939393939394 -0.9595959595959596 0.0
-0.9191919191919192 -0.9595959595959596 0.0
-0.898989898989899 -0.9595959595959596 0.0
-0.8787878787878788 -0.9595959595959596 0.0
-0.8585858585858586 -0.9595959595959596 0.0
-0.8383838383838383 -0.9595959595959596 0.0
-0.8181818181818181 -0.9595959595959596 0.0
-0.797979797979798 -0.9595959595959596 0.0
-0.7777777777777778 -0.9595959595959596 0.0
-0.7575757575757576 -0.9595959595959596 0.0
-0.7373737373737373 -0.9595959595959596 0.0
-0.7171717171717171 -0.9595959595959596 0.0
-0.696969696969697 -0.9595959595959596 0.0
-0.6767676767676767 -0.9595959595959596 0.0
-0.6565656565656566 -0.9595959595959596 0.0
-0.6363636363636364 -0.9595959595959596 0.0
-0.6161616161616161 -0.9595959595959596 0.0
-0.5959595959595959 -0.9595959595959596 0.0
-0.5757575757575757 -0.9595959595959596 0.0
-0.5555555555555556 -0.9595959595959596 0.0
-0.5353535353535352 -0.9595959595959596 0.0
-0.5151515151515151 -0.9595959595959596 0.0
-0.4949494949494949 -0.9595959595959596 0.0
-0.4747474747474747 -0.9595959595959596 0.0
-0.4545454545454545 -0.9595959595959596 0.0
-0.43434343434343425 -0.9595959595959596 0.0
-0.41414141414141414 -0.9595959595959596 0.0
-0.3939393939393939 -0.9595959595959596 0.0
-0.3737373737373737 -0.9595959595959596 0.0
-0.3535353535353535 -0.9595959595959596 0.0
-0.33333333333333326 -0.9595959595959596 0.0
-0.31313131313131304 -0.9595959595959596 0.0
-0.2929292929292928 -0.9595959595959596 0.0
-0.2727272727272727 -0.9595959595959596 0.0
-0.2525252525252525 -0.9595959595959596 0.0
-0.23232323232323226 -0.9595959595959596 0.0
-0.21212121212121204 -0.9595959595959596 0.0
-0.19191919191919182 -0.9595959595959596 0.0
-0.1717171717171716 -0.9595959595959596 0.0
-0.1515151515151515 -0.9595959595959596 0.0
-0.13131313131313127 -0.9595959595959596 0.0
-0.11111111111111105 -0.9595959595959596 0.0
-0.09090909090909083 -0.9595959595959596 0.0
-0.07070707070707061 -0.9595959595959596 0.0
-0.050505050505050386 -0.9595959595959596 0.0
-0.030303030303030276 -0.9595959595959596 0.0
-0.010101010101010055 -0.9595959595959596 0.0
0.010101010101010166 -0.9595959595959596 0.0
0.030303030303030498 -0.9595959595959596 0.0
0.05050505050505061 -0.9595959595959596 0.0
0.07070707070707072 -0.9595959595959596 0.0
0.09090909090909105 -0.9595959595959596 0.0
0.11111111111111116 -0.9595959595959596 0.0
0.1313131313131315 -0.9595959595959596 0.0
0.1515151515151516 -0.9595959595959596 0.0
0.1717171717171717 -0.9595959595959596 0.0
0.19191919191919204 -0.9595959595959596 0.0
0.21212121212121215 -0.9595959595959596 0.0
[...]
POINT_DATA 10000
SCALARS u float 1
LOOKUP_TABLE default
0.597550094127655
0.5233736038208008
0.4411567747592926
0.3533037602901459
0.2620217204093933
0.169120192527771
0.07593628019094467
-0.01662466675043106
-0.10795462876558304
-0.19756671786308289
-0.2849157750606537
-0.3692706525325775
-0.4496450126171112
-0.5247936844825745
-0.593273937702179
-0.6535310745239258
-0.7040024995803833
-0.7432204484939575
-0.7699211835861206
-0.783132016658783
-0.7822745442390442
-0.7672396302223206
-0.7384270429611206
-0.6967352032661438
-0.6434643864631653
-0.5801551938056946
-0.5084007382392883
-0.4296833574771881
-0.345298707485199
-0.2563643157482147
-0.1639019250869751
-0.06894873827695847
0.027350805699825287
0.12369471043348312
0.21861058473587036
0.310498982667923
0.39769425988197327
0.47854775190353394
0.5515167713165283
0.6152353882789612
0.6685743927955627
0.7106744647026062
0.7409557700157166
0.7591055035591125
0.7650579810142517
0.7589542269706726
0.7411077618598938
0.7119643688201904
0.6720691919326782
0.6220440864562988
0.5625699162483215
0.49438899755477905
0.4183107316493988
0.33523741364479065
0.24618449807167053
0.1523103415966034
0.05493622273206711
-0.044439367949962616
-0.14413529634475708
-0.242311030626297
-0.3369988203048706
-0.42617732286453247
-0.5078622102737427
-0.5802310705184937
-0.6417588591575623
-0.691329836845398
-0.7283024191856384
-0.752493143081665
-0.7640950679779053
-0.7635625004768372
-0.7514923214912415
-0.7285223603248596
-0.695275604724884
-0.6523258090019226
-0.6002018451690674
-0.5394064784049988
-0.47045835852622986
-0.3939419984817505
-0.3105650842189789
-0.2212183177471161
-0.12702158093452454
-0.029360182583332062
0.07011700421571732
0.1695256531238556
0.2668111324310303
0.35985440015792847
0.4465812146663666
0.5250886678695679
0.5937477946281433
0.6512796878814697
0.6968069076538086
0.7298642992973328
0.7503989338874817
0.7587388157844543
0.7555631995201111
0.7418715953826904
0.7189306616783142
0.6882430911064148
0.6514836549758911
0.6104504466056824
0.52788907289505
0.4601283371448517
0.3861044943332672
0.30810344219207764
0.22804078459739685
0.14731433987617493
0.06679593771696091
-0.013069815933704376
-0.09209258109331131
-0.1701342761516571
-0.24692493677139282
-0.321921706199646
-0.3942354917526245
-0.46262291073799133
-0.5255517363548279
-0.5813117623329163
-0.6281564831733704
-0.6644584536552429
-0.688856840133667
-0.7003908753395081
-0.6986132860183716
-0.6836459040641785
-0.6561822295188904
-0.6173956990242004
-0.5687652826309204
-0.5118674039840698
-0.4481678307056427
-0.3788999021053314
-0.30504387617111206
-0.22739896178245544
-0.14669644832611084
-0.06371640413999557
0.02063021808862686
0.10526668280363083
0.18895277380943298
0.270320862531662
0.34792831540107727
0.4203234016895294
0.4861091077327728
0.5440073013305664
0.592908501625061
0.6319141983985901
0.6603547930717468
0.6778025031089783
0.6840630173683167
0.6791618466377258
0.6633221507072449
0.6369426846504211
0.6005635857582092
0.5548474192619324
0.5005491971969604
0.4384981691837311
0.3695887625217438
0.29477423429489136
0.21507424116134644
0.13157877326011658
0.045465849339962006
-0.04199612885713577
-0.1294374167919159
-0.21539410948753357
-0.2983202040195465
-0.3766110837459564
-0.4486525356769562
-0.5128821730613708
-0.5678950548171997
-0.6125496029853821
-0.6460708975791931
-0.6680957674980164
-0.6786594986915588
-0.6781116127967834
-0.6670137643814087
-0.6460263133049011
-0.6158325672149658
-0.5770863890647888
-0.5303906202316284
-0.47630205750465393
-0.415345698595047
-0.3480527698993683
-0.2750007212162018
-0.196865051984787
-0.11446661502122879
-0.02882600575685501
0.058804742991924286
0.14693138003349304
0.23383691906929016
0.31764236092567444
0.39639872312545776
0.4682048559188843
0.5313289761543274
0.5843182802200317
0.6260916590690613
0.6559908986091614
0.673803985118866
0.6797662377357483
0.6745269298553467
0.6591110825538635
0.6348684430122375
0.6034019589424133
0.5665121674537659
0.5261134505271912
0.4497639238834381
0.3903254270553589
0.3263528645038605
0.2598305642604828
0.19227606058120728
0.12466665357351303
0.05748146027326584
-0.00916881114244461
-0.0753643587231636
-0.14118656516075134
-0.20654639601707458
-0.27104970812797546
-0.3339180052280426
-0.39397281408309937
-0.44969478249549866
-0.4993423521518707
-0.5411178469657898
-0.5733563303947449
-0.5947110056877136
-0.6043120622634888
-0.6018759608268738
-0.587731659412384
-0.5627678036689758
-0.5282787084579468
-0.48574724793434143
-0.43662336468696594
-0.3821502923965454
-0.32329556345939636
-0.26078125834465027
-0.19517698884010315
-0.12702184915542603
-0.056913115084171295
0.01443064957857132
0.08615287393331528
0.15726697444915771
0.22668397426605225
0.29324135184288025
0.3557448089122772
0.413006067276001
0.4638858735561371
0.5073413252830505
0.5424625277519226
0.5685148239135742
0.5849600434303284
0.5914762616157532
0.587958812713623
0.5745217204093933
0.5514850616455078
0.519355297088623
0.478801429271698
0.43062469363212585
0.3757248818874359
0.315062940120697
0.24963876605033875
0.18046659231185913
0.10856582969427109
0.03496163338422775
-0.03931038826704025
-0.11319191008806229
-0.1855950951576233
-0.2553882598876953
-0.32139769196510315
-0.38241302967071533
-0.437204509973526
-0.48458001017570496
-0.5234631896018982
-0.5530022978782654
-0.5726615786552429
-0.5822743773460388
-0.5820199251174927
-0.5723513960838318
-0.5538951754570007
-0.527357280254364
-0.4934481680393219
-0.45284023880958557
-0.4061436653137207
-0.35390543937683105
-0.2966262996196747
-0.23477819561958313
-0.16885003447532654
-0.09939595311880112
-0.027091525495052338
0.047207705676555634
0.12241790443658829
0.19720962643623352
0.2700207829475403
0.3391198217868805
0.4027039408683777
0.4590247869491577
0.5065216422080994
0.5439493060112
0.5704628825187683
0.585685133934021
0.5897263884544373
0.583163857460022
0.5670075416564941
0.5426311492919922
0.5117027759552002
0.47608599066734314
0.4377678334712982
0.3649052679538727
0.31558653712272644
0.2632687985897064
0.20949625968933105
0.155344158411026
0.10140752047300339
0.047879986464977264
-0.0053224340081214905
-0.058407463133335114
-0.11154962331056595
-0.16474983096122742
-0.21771731972694397
-0.2697949707508087
-0.3199361264705658
-0.36675146222114563
-0.4086192846298218
-0.4438578188419342
-0.47092315554618835
-0.4886113107204437
-0.49621471762657166
-0.49361029267311096
-0.48124977946281433
-0.4600588381290436
-0.4312572181224823
-0.39614295959472656
-0.3559092581272125
-0.31152984499931335
-0.2637411057949066
-0.21308717131614685
-0.16001734137535095
-0.10496438294649124
-0.04840689152479172
0.009099073708057404
0.06691830605268478
0.12433554977178574
0.18057185411453247
0.23478931188583374
0.2860965430736542
0.3335658013820648
0.37625035643577576
0.4132196307182312
0.4435989260673523
0.46661752462387085
0.4816543161869049
0.4882717430591583
0.4862399697303772
0.4755544364452362
0.45643752813339233
0.4293272793292999
0.39486125111579895
0.35384032130241394
0.30718663334846497
0.2558944523334503
0.20097672939300537
0.14342480897903442
0.08417538553476334
0.024098001420497894
-0.035999588668346405
-0.09536036103963852
-0.1532493531703949
-0.20892885327339172
-0.2616354525089264
-0.3105587065219879
-0.3548327684402466
-0.3935423791408539
-0.42577287554740906
-0.45068779587745667
-0.46763595938682556
-0.47625353932380676
-0.4765085279941559
-0.4686826169490814
-0.4533023536205292
-0.4310387372970581
-0.4026227593421936
-0.368770033121109
-0.330134779214859
-0.2872876822948456
-0.24070310592651367
-0.1907704770565033
-0.1378212869167328
-0.08217445760965347
-0.024197585880756378
0.035622738301754
0.09660448879003525
0.1578240990638733
0.21808680891990662
0.2759575843811035
0.32982781529426575
0.3780328035354614
0.41899752616882324
0.45137038826942444
0.4741653501987457
0.4868427813053131
0.4893661439418793
0.48220452666282654
0.46629664301872253
0.4429873526096344
0.41394010186195374
0.3810358941555023
0.34627047181129456
0.2750605642795563
0.23738598823547363
0.19796791672706604
0.15783336758613586
0.11762120574712753
0.07761862128973007
0.037841878831386566
-0.001859821379184723
-0.04169691354036331
-0.081831194460392
-0.1222718134522438
-0.16278859972953796
-0.2028515636920929
-0.2416052520275116
-0.2779071033000946
-0.31041717529296875
-0.337753027677536
-0.3586672246456146
-0.3722255527973175
-0.3779310882091522
-0.3757793605327606
-0.36621272563934326
-0.3500078022480011
-0.3281114101409912
-0.3014830946922302
-0.2709791958332062
-0.23729917407035828
-0.2010018527507782
-0.16254454851150513
-0.12233716994524002
-0.08077741414308548
-0.038268379867076874
0.004780344665050507
0.04794801026582718
0.09080397337675095
0.13289237022399902
0.17371606826782227
0.21271997690200806
0.2492714822292328
0.28266218304634094
0.31212538480758667
0.33687320351600647
0.3561474680900574
0.36928030848503113
0.3757456839084625
0.37520596385002136
0.36754149198532104
0.3528653085231781
0.3315226137638092
0.30407583713531494
0.2712689936161041
0.23398688435554504
0.19319286942481995
0.1498652696609497
0.10493459552526474
0.05923839658498764
0.01349080353975296
-0.03171924501657486
-0.0759083554148674
-0.11866416782140732
-0.15960773825645447
-0.19834652543067932
-0.23444697260856628
-0.2673966586589813
-0.296593576669693
-0.321353942155838
-0.34095296263694763
-0.3547210097312927
-0.36215004324913025
-0.36299997568130493
-0.3573406934738159
-0.3455297350883484
-0.32814255356788635
-0.30587154626846313
-0.2794361412525177
-0.24950888752937317
-0.2166670858860016
-0.18135914206504822
-0.14390036463737488
-0.10449058562517166
-0.06324855238199234
-0.020276911556720734
0.02425955981016159
0.0700528547167778
0.11656983941793442
0.16300815343856812
0.20827984809875488
0.25105878710746765
0.28986856341362
0.32321545481681824
0.34974315762519836
0.36837753653526306
0.37844598293304443
0.3797638416290283
0.37265515327453613
0.3579418957233429
0.33687344193458557
0.3110414445400238
0.2822722792625427
0.25251469016075134
0.18188071250915527
0.15697553753852844
0.13128647208213806
0.1053081676363945
0.0792856439948082
0.05327858775854111
0.02722262591123581
0.0009962543845176697
-0.0255226269364357
-0.052402056753635406
-0.07959938794374466
-0.10690966993570328
-0.1339331567287445
-0.16005495190620422
-0.18448331952095032
-0.2063106894493103
-0.2246248424053192
-0.23863402009010315
-0.2477758824825287
-0.25178399682044983
-0.25069597363471985
-0.24480000138282776
-0.23454788327217102
-0.22046363353729248
-0.2030736207962036
-0.18286538124084473
-0.16029053926467896
-0.1357811689376831
-0.10976562649011612
-0.0826665535569191
-0.054882146418094635
-0.026759423315525055
0.0014211758971214294
0.029447339475154877
0.05716436356306076
0.08443395048379898
0.1111021563410759
0.13695088028907776
0.16166487336158752
0.184809148311615
0.20583021640777588
0.22408244013786316
0.23887869715690613
0.2495543360710144
0.25553664565086365
0.25640326738357544
0.25193145871162415
0.24212250113487244
0.22720840573310852
0.2076360583305359
0.18404072523117065
0.15720197558403015
0.1279791295528412
0.09724926203489304
0.06583278626203537
0.034440286457538605
0.003626681864261627
-0.026218198239803314
-0.05485505610704422
-0.08215457946062088
-0.10804931074380875
-0.13247811794281006
-0.1553402841091156
-0.17645415663719177
-0.1955297291278839
-0.21214976906776428
-0.225783109664917
-0.23583731055259705
-0.24175694584846497
-0.24313941597938538
-0.23983845114707947
-0.23199787735939026
-0.2200271189212799
-0.2045130431652069
-0.18612191081047058
-0.16550526022911072
-0.14321479201316833
-0.11966355890035629
-0.09509482234716415
-0.06959203630685806
-0.04311060160398483
-0.015533588826656342
0.013245902955532074
0.043242089450359344
0.07428144663572311
0.10594447702169418
0.13752293586730957
0.16803327202796936
0.1962810754776001
0.22096192836761475
0.24081116914749146
0.2547491490840912
0.2620280981063843
0.26232844591140747
0.25581449270248413
0.2431427538394928
0.22540530562400818
0.2040514349937439
0.18078124523162842
0.15742406249046326
0.08685337752103806
0.07536929100751877
0.06381439417600632
0.05218198150396347
0.04038586467504501
0.028324119746685028
0.015919379889965057
0.003139697015285492
-0.0099969282746315
-0.023418910801410675
-0.03699517995119095
-0.05052868276834488
-0.06375295668840408
-0.07634169608354568
-0.0879305973649025
-0.09815899282693863
-0.10671348124742508
-0.11336419731378555
-0.11797749251127243
-0.12050033360719681
-0.12092653661966324
-0.11927012354135513
-0.1155460849404335
-0.10978219658136368
-0.102040134370327
-0.09245171397924423
-0.0812470093369484
-0.0687594786286354
-0.05540614575147629
-0.04162753373384476
-0.027822263538837433
-0.014290980994701385
-0.0011912062764167786
0.011457987129688263
0.023752368986606598
0.03584981709718704
0.047916166484355927
0.06005807965993881
0.07227841764688492
0.08443581312894821
0.09622908383607864
0.10721320658922195
0.1168321743607521
0.12448760122060776
0.12960636615753174
0.13171854615211487
0.13051331043243408
0.12587842345237732
0.11791444569826126
0.10692472010850906
0.09338683634996414
0.07791165262460709
0.0611899271607399
0.043924279510974884
0.026771239936351776
0.010274745523929596
-0.005178667604923248
-0.019384749233722687
-0.032313115894794464
-0.044075317680835724
-0.054868243634700775
-0.06491584330797195
-0.07440773397684097
-0.08345877379179001
-0.09206684678792953
-0.10008976608514786
-0.10723250359296799
-0.11306395381689072
-0.11707863956689835
-0.11879812926054001
-0.11789628118276596
-0.11428875476121902
-0.1081632599234581
-0.09993313997983932
-0.0901414230465889
-0.07935916632413864
-0.06808032840490341
-0.05665452033281326
-0.0452500656247139
-0.033847592771053314
-0.022264547646045685
-0.010212726891040802
0.002635456621646881
0.016556866466999054
0.03169577568769455
0.04798678308725357
0.06510185450315475
0.08244168013334274
0.09915774315595627
0.11422941833734512
0.12659063935279846
0.1352534294128418
0.139460027217865
0.13879382610321045
0.13326671719551086
0.12333584576845169
0.1098826453089714
0.09414737671613693
0.0776236429810524
0.06194350868463516
-0.008710779249668121
-0.006621755659580231
-0.004036284983158112
-0.0014039650559425354
0.000913761556148529
0.002699039876461029
0.0038925036787986755
0.004571698606014252
0.004909418523311615
0.005125515162944794
0.005443297326564789
0.006048969924449921
0.007057152688503265
0.008476100862026215
0.010188482701778412
0.011950545012950897
0.013422481715679169
0.014242641627788544
0.014123551547527313
0.0129542276263237
0.01084154099225998
0.008102081716060638
0.005182616412639618
0.0025440528988838196
0.0005571320652961731
-0.0005862340331077576
-0.0009095147252082825
-0.0006429925560951233
-0.0001629069447517395
0.0001044347882270813
-0.00021547824144363403
-0.0013575032353401184
-0.0033665671944618225
-0.006093792617321014
-0.009223558008670807
-0.01234205812215805
-0.015002317726612091
-0.01679711788892746
-0.017422713339328766
-0.01672501116991043
-0.01472444087266922
-0.011622495949268341
-0.007779650390148163
-0.0036683157086372375
0.00019910186529159546
0.00334177166223526
0.005382083356380463
0.006095774471759796
0.00543636828660965
0.003532983362674713
0.0006695464253425598
-0.0027580037713050842
-0.006286151707172394
-0.009437300264835358
-0.011776499450206757
-0.012964494526386261
-0.012804113328456879
-0.011270947754383087
-0.00851883739233017
-0.004857756197452545
-0.0007044300436973572
0.003479473292827606
0.007250271737575531
0.010237656533718109
0.01218319684267044
0.012971006333827972
0.012651272118091583
0.011444441974163055
0.009725771844387054
0.007954590022563934
0.006563134491443634
0.005839802324771881
0.005844466388225555
0.006401531398296356
0.007160387933254242
0.007696084678173065
0.007622800767421722
0.006680704653263092
0.004790939390659332
0.0020667538046836853
-0.001198209822177887
-0.0045782700181007385
-0.0075784847140312195
-0.009707994759082794
-0.010561414062976837
-0.009889103472232819
-0.007654644548892975
-0.004067800939083099
0.00041440874338150024
0.005129866302013397
0.009294725954532623
0.012109421193599701
0.01289156824350357
0.011186592280864716
0.0068729594349861145
0.0002025887370109558
-0.00819581001996994
-0.017357923090457916
-0.026066534221172333
-0.03296487778425217
-0.10364321619272232
-0.0883021131157875
-0.07192394882440567
-0.055330850183963776
-0.039117999374866486
-0.02359975129365921
-0.008822001516819
0.005385272204875946
0.01932283490896225
0.03333210200071335
0.04770108312368393
0.06257437914609909
0.07788576930761337
0.09330441802740097
0.10822119563817978
0.1217949315905571
0.13306912779808044
0.14114776253700256
0.145391047000885
0.14557218551635742
0.141923725605011
0.13506457209587097
0.12583455443382263
0.11510639637708664
0.10360745340585709
0.09181603044271469
0.07991380244493484
0.06781236082315445
0.05523737519979477
0.04183916002511978
0.02732042223215103
0.01153620332479477
-0.005447693169116974
-0.023335762321949005
-0.0416407510638237
-0.059736259281635284
-0.07693783193826675
-0.0925823375582695
-0.10608639568090439
-0.11701302975416183
-0.12509411573410034
-0.13026055693626404
-0.1326313614845276
-0.13249137997627258
-0.1302369236946106
-0.12631002068519592
-0.12113074213266373
-0.11503144353628159
-0.10821858793497086
-0.10076230019330978
-0.0926068052649498
-0.08360310643911362
-0.07354719191789627
-0.06222591549158096
-0.04946116358041763
-0.03514984995126724
-0.019308753311634064
-0.002098880708217621
0.016153089702129364
0.03496759384870529
0.053748778998851776
0.07183416932821274
0.08856786042451859
0.10335550457239151
0.11570871621370316
0.12528157234191895
0.13189095258712769
0.1355406641960144
0.13642656803131104
0.1349087357521057
0.13144344091415405
0.12646126747131348
0.12026190012693405
0.11294116824865341
0.10440567880868912
0.09444121271371841
0.0828239843249321
0.06942168623209
0.05425504595041275
0.03753281384706497
0.01964176446199417
0.0011116638779640198
-0.017434068024158478
-0.035339467227458954
-0.05198455601930618
-0.06684716790914536
-0.07956188172101974
-0.08996056765317917
-0.09809321910142899
-0.10422379523515701
-0.10878463834524155
-0.11230496317148209
-0.1153109148144722
-0.11822120100259781
-0.12125132232904434
-0.12434583157300949
-0.12714779376983643
-0.12901490926742554
-0.1290799081325531
-0.12632036209106445
-0.19685211777687073
-0.169002503156662
-0.1394801139831543
-0.10941729694604874
-0.07961244136095047
-0.05048713833093643
-0.022107847034931183
0.0057350024580955505
0.033410750329494476
0.06131967157125473
0.08975031226873398
0.1187589094042778
0.14806458353996277
0.17698949575424194
0.20446869730949402
0.2291460633277893
0.24956420063972473
0.26442283391952515
0.27283674478530884
0.27450764179229736
0.2697581350803375
0.25941047072410583
0.24457058310508728
0.22638389468193054
0.20584866404533386
0.18368488550186157
0.16029351949691772
0.13578206300735474
0.11005233973264694
0.08291580528020859
0.05421724170446396
0.023936264216899872
-0.007741518318653107
-0.04039978235960007
-0.07341427356004715
-0.10599968582391739
-0.13728439807891846
-0.16638588905334473
-0.19248443841934204
-0.21487686038017273
-0.2330208122730255
-0.24656686186790466
-0.2553669810295105
-0.2594776451587677
-0.2591281235218048
-0.2546769082546234
-0.2465478479862213
-0.23516783118247986
-0.220912367105484
-0.20406892895698547
-0.18483680486679077
-0.1633378565311432
-0.13964629173278809
-0.11382845789194107
-0.08597729355096817
-0.05624429136514664
-0.024874486029148102
0.007771573960781097
0.04119542986154556
0.07476098090410233
0.10771548002958298
0.13923275470733643
0.16847315430641174
0.19464826583862305
0.2170693278312683
0.23518717288970947
0.24861526489257812
0.2571529448032379
0.26080837845802307
0.25980329513549805
0.254538357257843
0.24551981687545776
0.23323455452919006
0.21805405616760254
0.20017766952514648
0.17966002225875854
0.1564941108226776
0.13070762157440186
0.10244392603635788
0.07200493663549423
0.039858780801296234
0.006621591746807098
-0.026986129581928253
-0.060179613530635834