# vtk DataFile Version 3.0
2D PINN Solution
ASCII
DATASET STRUCTURED_GRID
DIMENSIONS 100 100 1
POINTS 10000 float
-1.0 -1.0 0.0
-0.9797979797979798 -1.0 0.0
-0.9595959595959596 -1.0 0.0
-0.9393939393939394 -1.0 0.0
-0.9191919191919192 -1.0 0.0
-0.898989898989899 -1.0 0.0
-0.8787878787878788 -1.0 0.0
-0.8585858585858586 -1.0 0.0
-0.8383838383838383 -1.0 0.0
-0.8181818181818181 -1.0 0.0
-0.797979797979798 -1.0 0.0
-0.7777777777777778 -1.0 0.0
-0.7575757575757576 -1.0 0.0
-0.7373737373737373 -1.0 0.0
-0.7171717171717171 -1.0 0.0
-0.696969696969697 -1.0 0.0
-0.6767676767676767 -1.0 0.0
-0.6565656565656566 -1.0 0.0
-0.6363636363636364 -1.0 0.0
-0.6161616161616161 -1.0 0.0
-0.5959595959595959 -1.0 0.0
-0.5757575757575757 -1.0 0.0
-0.5555555555555556 -1.0 0.0
-0.5353535353535352 -1.0 0.0
-0.5151515151515151 -1.0 0.0
-0.4949494949494949 -1.0 0.0
-0.4747474747474747 -1.0 0.0
-0.4545454545454545 -1.0 0.0
-0.43434343434343425 -1.0 0.0
-0.41414141414141414 -1.0 0.0
-0.3939393939393939 -1.0 0.0
-0.3737373737373737 -1.0 0.0
-0.3535353535353535 -1.0 0.0
-0.33333333333333326 -1.0 0.0
-0.31313131313131304 -1.0 0.0
-0.2929292929292928 -1.0 0.0
-0.2727272727272727 -1.0 0.0
-0.2525252525252525 -1.0 0.0
-0.23232323232323226 -1.0 0.0
-0.21212121212121204 -1.0 0.0
-0.19191919191919182 -1.0 0.0
-0.1717171717171716 -1.0 0.0
-0.1515151515151515 -1.0 0.0
-0.13131313131313127 -1.0 0.0
-0.11111111111111105 -1.0 0.0
-0.09090909090909083 -1.0 0.0
-0.07070707070707061 -1.0 0.0
-0.050505050505050386 -1.0 0.0
-0.030303030303030276 -1.0 0.0
-0.010101010101010055 -1.0 0.0
0.010101010101010166 -1.0 0.0
0.030303030303030498 -1.0 0.0
0.05050505050505061 -1.0 0.0
0.07070707070707072 -1.0 0.0
0.09090909090909105 -1.0 0.0
0.11111111111111116 -1.0 0.0
0.1313131313131315 -1.0 0.0
0.1515151515151516 -1.0 0.0
0.1717171717171717 -1.0 0.0
0.19191919191919204 -1.0 0.0
0.21212121212121215 -1.0 0.0
0.2323232323232325 -1.0 0.0
0.2525252525252526 -1.0 0.0
0.27272727272727293 -1.0 0.0
0.29292929292929304 -1.0 0.0
0.31313131313131315 -1.0 0.0
0.3333333333333335 -1.0 0.0
0.3535353535353536 -1.0 0.0
0.3737373737373739 -1.0 0.0
0.39393939393939403 -1.0 0.0
0.41414141414141437 -1.0 0.0
0.4343434343434345 -1.0 0.0
0.4545454545454546 -1.0 0.0
0.4747474747474749 -1.0 0.0
0.49494949494949503 -1.0 0.0
0.5151515151515154 -1.0 0.0
0.5353535353535355 -1.0 0.0
0.5555555555555556 -1.0 0.0
0.5757575757575759 -1.0 0.0
0.595959595959596 -1.0 0.0
0.6161616161616164 -1.0 0.0
0.6363636363636365 -1.0 0.0
0.6565656565656568 -1.0 0.0
0.6767676767676769 -1.0 0.0
0.696969696969697 -1.0 0.0
0.7171717171717173 -1.0 0.0
0.7373737373737375 -1.0 0.0
0.7575757575757578 -1.0 0.0
0.7777777777777779 -1.0 0.0
0.7979797979797982 -1.0 0.0
0.8181818181818183 -1.0 0.0
0.8383838383838385 -1.0 0.0
0.8585858585858588 -1.0 0.0
0.8787878787878789 -1.0 0.0
0.8989898989898992 -1.0 0.0
0.9191919191919193 -1.0 0.0
0.9393939393939394 -1.0 0.0
0.9595959595959598 -1.0 0.0
0.9797979797979799 -1.0 0.0
1.0 -1.0 0.0
-1.0 -0.9797979797979798 0.0
-0.9797979797979798 -0.9797979797979798 0.0
-0.9595959595959596 -0.9797979797979798 0.0
-0.9393939393939394 -0.9797979797979798 0.0
-0.9191919191919192 -0.9797979797979798 0.0
-0.898989898989899 -0.9797979797979798 0.0
-0.8787878787878788 -0.9797979797979798 0.0
-0.8585858585858586 -0.9797979797979798 0.0
-0.8383838383838383 -0.9797979797979798 0.0
-0.8181818181818181 -0.9797979797979798 0.0
-0.797979797979798 -0.9797979797979798 0.0
-0.7777777777777778 -0.9797979797979798 0.0
-0.7575757575757576 -0.9797979797979798 0.0
-0.7373737373737373 -0.9797979797979798 0.0
-0.7171717171717171 -0.9797979797979798 0.0
-0.696969696969697 -0.9797979797979798 0.0
-0.6767676767676767 -0.9797979797979798 0.0
-0.6565656565656566 -0.9797979797979798 0.0
-0.6363636363636364 -0.9797979797979798 0.0
-0.6161616161616161 -0.9797979797979798 0.0
-0.5959595959595959 -0.9797979797979798 0.0
-0.5757575757575757 -0.9797979797979798 0.0
-0.5555555555555556 -0.9797979797979798 0.0
-0.5353535353535352 -0.9797979797979798 0.0
-0.5151515151515151 -0.9797979797979798 0.0
-0.4949494949494949 -0.9797979797979798 0.0
-0.4747474747474747 -0.9797979797979798 0.0
-0.4545454545454545 -0.9797979797979798 0.0
-0.43434343434343425 -0.9797979797979798 0.0
-0.41414141414141414 -0.9797979797979798 0.0
-0.3939393939393939 -0.9797979797979798 0.0
-0.3737373737373737 -0.9797979797979798 0.0
-0.3535353535353535 -0.9797979797979798 0.0
-0.33333333333333326 -0.9797979797979798 0.0
-0.31313131313131304 -0.9797979797979798 0.0
-0.2929292929292928 -0.9797979797979798 0.0
-0.2727272727272727 -0.9797979797979798 0.0
-0.2525252525252525 -0.9797979797979798 0.0
-0.23232323232323226 -0.9797979797979798 0.0
-0.21212121212121204 -0.9797979797979798 0.0
-0.19191919191919182 -0.9797979797979798 0.0
-0.1717171717171716 -0.9797979797979798 0.0
-0.1515151515151515 -0.9797979797979798 0.0
-0.13131313131313127 -0.9797979797979798 0.0
-0.11111111111111105 -0.9797979797979798 0.0
-0.09090909090909083 -0.9797979797979798 0.0
-0.07070707070707061 -0.9797979797979798 0.0
-0.050505050505050386 -0.9797979797979798 0.0
-0.030303030303030276 -0.9797979797979798 0.0
-0.010101010101010055 -0.9797979797979798 0.0
0.010101010101010166 -0.9797979797979798 0.0
0.030303030303030498 -0.9797979797979798 0.0
0.05050505050505061 -0.9797979797979798 0.0
0.07070707070707072 -0.9797979797979798 0.0
0.09090909090909105 -0.9797979797979798 0.0
0.11111111111111116 -0.9797979797979798 0.0
0.1313131313131315 -0.9797979797979798 0.0
0.1515151515151516 -0.9797979797979798 0.0
0.1717171717171717 -0.9797979797979798 0.0
0.19191919191919204 -0.9797979797979798 0.0
0.21212121212121215 -0.9797979797979798 0.0
0.2323232323232325 -0.9797979797979798 0.0
0.2525252525252526 -0.9797979797979798 0.0
0.27272727272727293 -0.9797979797979798 0.0
0.29292929292929304 -0.9797979797979798 0.0
0.31313131313131315 -0.9797979797979798 0.0
0.3333333333333335 -0.9797979797979798 0.0
0.3535353535353536 -0.9797979797979798 0.0
0.3737373737373739 -0.9797979797979798 0.0
0.39393939393939403 -0.9797979797979798 0.0
0.41414141414141437 -0.9797979797979798 0.0
0.4343434343434345 -0.9797979797979798 0.0
0.4545454545454546 -0.9797979797979798 0.0
0.4747474747474749 -0.9797979797979798 0.0
0.49494949494949503 -0.9797979797979798 0.0
0.5151515151515154 -0.9797979797979798 0.0
0.5353535353535355 -0.9797979797979798 0.0
0.5555555555555556 -0.9797979797979798 0.0
0.5757575757575759 -0.9797979797979798 0.0
0.595959595959596 -0.9797979797979798 0.0
0.6161616161616164 -0.9797979797979798 0.0
0.6363636363636365 -0.9797979797979798 0.0
0.6565656565656568 -0.9797979797979798 0.0
0.6767676767676769 -0.9797979797979798 0.0
0.696969696969697 -0.9797979797979798 0.0
0.7171717171717173 -0.9797979797979798 0.0
0.7373737373737375 -0.9797979797979798 0.0
0.7575757575757578 -0.9797979797979798 0.0
0.7777777777777779 -0.9797979797979798 0.0
0.7979797979797982 -0.9797979797979798 0.0
0.8181818181818183 -0.9797979797979798 0.0
0.8383838383838385 -0.9797979797979798 0.0
0.8585858585858588 -0.9797979797979798 0.0
0.8787878787878789 -0.9797979797979798 0.0
0.8989898989898992 -0.9797979797979798 0.0
0.9191919191919193 -0.9797979797979798 0.0
0.9393939393939394 -0.9797979797979798 0.0
0.9595959595959598 -0.9797979797979798 0.0
0.9797979797979799 -0.9797979797979798 0.0
1.0 -0.9797979797979798 0.0
-1.0 -0.9595959595959596 0.0
-0.9797979797979798 -0.9595959595959596 0.0
-0.9595959595959596 -0.9595959595959596 0.0
-0.9393939393939394 -0.9595959595959596 0.0
-0.9191919191919192 -0.9595959595959596 0.0
-0.898989898989899 -0.9595959595959596 0.0
-0.8787878787878788 -0.9595959595959596 0.0
-0.8585858585858586 -0.9595959595959596 0.0
-0.8383838383838383 -0.9595959595959596 0.0
-0.8181818181818181 -0.9595959595959596 0.0
-0.797979797979798 -0.9595959595959596 0.0
-0.7777777777777778 -0.9595959595959596 0.0
-0.7575757575757576 -0.9595959595959596 0.0
-0.7373737373737373 -0.9595959595959596 0.0
-0.7171717171717171 -0.9595959595959596 0.0
-0.696969696969697 -0.9595959595959596 0.0
-0.6767676767676767 -0.9595959595959596 0.0
-0.6565656565656566 -0.9595959595959596 0.0
-0.6363636363636364 -0.9595959595959596 0.0
-0.6161616161616161 -0.9595959595959596 0.0
-0.5959595959595959 -0.9595959595959596 0.0
-0.5757575757575757 -0.9595959595959596 0.0
-0.5555555555555556 -0.9595959595959596 0.0
-0.5353535353535352 -0.9595959595959596 0.0
-0.5151515151515151 -0.9595959595959596 0.0
-0.4949494949494949 -0.9595959595959596 0.0
-0.4747474747474747 -0.9595959595959596 0.0
-0.4545454545454545 -0.9595959595959596 0.0
-0.43434343434343425 -0.9595959595959596 0.0
-0.41414141414141414 -0.9595959595959596 0.0
-0.3939393939393939 -0.9595959595959596 0.0
-0.3737373737373737 -0.9595959595959596 0.0
-0.3535353535353535 -0.9595959595959596 0.0
-0.33333333333333326 -0.9595959595959596 0.0
-0.31313131313131304 -0.9595959595959596 0.0
-0.2929292929292928 -0.9595959595959596 0.0
-0.2727272727272727 -0.9595959595959596 0.0
-0.2525252525252525 -0.9595959595959596 0.0
-0.23232323232323226 -0.9595959595959596 0.0
-0.21212121212121204 -0.9595959595959596 0.0
-0.19191919191919182 -0.9595959595959596 0.0
-0.1717171717171716 -0.9595959595959596 0.0
-0.1515151515151515 -0.9595959595959596 0.0
-0.13131313131313127 -0.9595959595959596 0.0
-0.11111111111111105 -0.9595959595959596 0.0
-0.09090909090909083 -0.9595959595959596 0.0
-0.07070707070707061 -0.9595959595959596 0.0
-0.050505050505050386 -0.9595959595959596 0.0
-0.030303030303030276 -0.9595959595959596 0.0
-0.010101010101010055 -0.9595959595959596 0.0
0.010101010101010166 -0.9595959595959596 0.0
0.030303030303030498 -0.9595959595959596 0.0
0.05050505050505061 -0.9595959595959596 0.0
0.07070707070707072 -0.9595959595959596 0.0
0.09090909090909105 -0.9595959595959596 0.0
0.11111111111111116 -0.9595959595959596 0.0
0.1313131313131315 -0.9595959595959596 0.0
0.1515151515151516 -0.9595959595959596 0.0
0.1717171717171717 -0.9595959595959596 0.0
0.19191919191919204 -0.9595959595959596 0.0
0.21212121212121215 -0.9595959595959596 0.0
[...]
POINT_DATA 10000
SCALARS u float 1
LOOKUP_TABLE default
0.9576247930526733
0.9299762845039368
0.8877813220024109
0.8311958312988281
0.7605566382408142
0.6764658093452454
0.5798820853233337
0.47221246361732483
0.35535478591918945
0.23165836930274963
0.10382556170225143
-0.02528414875268936
-0.15284839272499084
-0.27627313137054443
-0.3933219611644745
-0.5021787285804749
-0.6014449000358582
-0.6900957226753235
-0.7673987150192261
-0.8328292965888977
-0.8859864473342896
-0.9265134334564209
-0.9540408253669739
-0.9681462645530701
-0.9683460593223572
-0.9541265368461609
-0.9250220656394958
-0.8807231187820435
-0.8212211728096008
-0.7469423413276672
-0.6588304042816162
-0.5583553314208984
-0.44745007157325745
-0.32837024331092834
-0.20354947447776794
-0.075472392141819
0.053407199680805206
0.1807078719139099
0.3041422367095947
0.4215411841869354
0.5308904051780701
0.6303812861442566
0.7184663414955139
0.793908417224884
0.8558003902435303
0.9035688042640686
0.9369398951530457
0.9558852910995483
0.9605673551559448
0.9512739777565002
0.9283672571182251
0.8922523856163025
0.8433568477630615
0.7821338772773743
0.7090770602226257
0.624755322933197
0.5298627614974976
0.42528340220451355
0.31215840578079224
0.19196566939353943
0.06656461209058762
-0.061782144010066986
-0.19046595692634583
-0.3166485130786896
-0.4374488890171051
-0.5501552224159241
-0.6524159908294678
-0.742367684841156
-0.8186749815940857
-0.8804957866668701
-0.9273980259895325
-0.9592519402503967
-0.9761281609535217
-0.9782103896141052
-0.9657370448112488
-0.9389705061912537
-0.8981946110725403
-0.8437362909317017
-0.7760210633277893
-0.6956350803375244
-0.6034064888954163
-0.5004810094833374
-0.3883751630783081
-0.26899585127830505
-0.1446056365966797
-0.0177370086312294
0.10894284397363663
0.23279020190238953
0.3513476848602295
0.4624760150909424
0.5644385814666748
0.6559367179870605
0.736102283000946
0.8044448494911194
0.8607908487319946
0.9052160382270813
0.9379857778549194
0.959506094455719
0.9703012108802795
0.9709932804107666
0.9314767718315125
0.9050180315971375
0.8636251091957092
0.8075045347213745
0.7371801733970642
0.6535606980323792
0.5579880475997925
0.452240526676178
0.3384845554828644
0.21915334463119507
0.09679239243268967
-0.02610079199075699
-0.1472119688987732
-0.2644839584827423
-0.37614205479621887
-0.48068907856941223
-0.5768654942512512
-0.6636227369308472
-0.7400745749473572
-0.805459201335907
-0.8590967059135437
-0.9003494381904602
-0.9285973906517029
-0.9432241320610046
-0.9436362385749817
-0.9293069243431091
-0.8998709917068481
-0.8552261590957642
-0.7956590056419373
-0.7219205498695374
-0.635246992111206
-0.5372942090034485
-0.43001535534858704
-0.3155159652233124
-0.19594445824623108
-0.07343132048845291
0.04992351680994034
0.17203325033187866
0.29081493616104126
0.404213547706604
0.5102448463439941
0.6070685982704163
0.6930683255195618
0.7669243216514587
0.8276501893997192
0.8746070265769958
0.9074746966362
0.9262067079544067
0.9309672713279724
0.9220619797706604
0.8998835682868958
0.8648668527603149
0.8174672722816467
0.7581586837768555
0.6874427795410156
0.6058863997459412
0.5141649842262268
0.4131205976009369
0.3038302958011627
0.1876695454120636
0.0663689598441124
-0.05795968323945999
-0.1828477382659912
-0.3055557906627655
-0.4232339859008789
-0.5331304669380188
-0.6328004598617554
-0.7202754616737366
-0.79415363073349
-0.8535902500152588
-0.89821457862854
-0.92801433801651
-0.9432051777839661
-0.9441244006156921
-0.9311521649360657
-0.9046626687049866
-0.86501544713974
-0.8125676512718201
-0.7477192282676697
-0.6709714531898499
-0.5830124020576477
-0.4847916066646576
-0.3775905668735504
-0.26306894421577454
-0.1432521641254425
-0.020487405359745026
0.10267426818609238
0.22361904382705688
0.3398307263851166
0.44903939962387085
0.5493333339691162
0.6392186284065247
0.7176337242126465
0.7839247584342957
0.8377955555915833
0.8792442083358765
0.9085089564323425
0.9260236024856567
0.9323806762695312
0.9283215403556824
0.8914677500724792
0.8660834431648254
0.8255564570426941
0.7702287435531616
0.7009052634239197
0.6188777685165405
0.5258979797363281
0.42408430576324463
0.31576502323150635
0.20330071449279785
0.08891739696264267
-0.025396086275577545
-0.13792404532432556
-0.2471877634525299
-0.35187581181526184
-0.4507801830768585
-0.5427443385124207
-0.6266483664512634
-0.701408326625824
-0.7659831643104553
-0.81938236951828
-0.8606688976287842
-0.8889755606651306
-0.9035215377807617
-0.903658390045166
-0.8889357447624207
-0.859186589717865
-0.8146184086799622
-0.7558758854866028
-0.6840478181838989
-0.6006015539169312
-0.5072571635246277
-0.405844509601593
-0.298186331987381
-0.18605586886405945
-0.0711882933974266
0.04467214643955231
0.15971970558166504
0.2720726430416107
0.37979552149772644
0.4809597432613373
0.5737312436103821
0.6564673781394958
0.7277905344963074
0.7866477370262146
0.8323262333869934
0.8644354939460754
0.8828759789466858
0.887773334980011
0.8794171810150146
0.85821133852005
0.8246141672134399
0.7791181802749634
0.722237229347229
0.6545150279998779
0.5765486359596252
0.4890328347682953
0.392804354429245
0.2889018654823303
0.17861849069595337
0.06355007737874985
-0.05437604337930679
-0.172914057970047
-0.28955283761024475
-0.40163448452949524
-0.5065209269523621
-0.6017953753471375
-0.6854405403137207
-0.7559753656387329
-0.8124889135360718
-0.8545905351638794
-0.8823004364967346
-0.8959141373634338
-0.895876944065094
-0.8826841115951538
-0.8568227291107178
-0.8187377452850342
-0.76884526014328
-0.7075600028038025
-0.6353445649147034
-0.5527884364128113
-0.46067801117897034
-0.36007338762283325
-0.2523646950721741
-0.13929447531700134
-0.02293219417333603
0.09439199417829514
0.21021002531051636
0.3220538794994354
0.42760536074638367
0.5248242020606995
0.6120303869247437
0.6879556775093079
0.7517483830451965
0.8029429316520691
0.8414204716682434
0.8673581480979919
0.8811888098716736
0.883561372756958
0.875330924987793
0.8375876545906067
0.8131776452064514
0.7736958861351013
0.7197054028511047
0.6523510217666626
0.5733258128166199
0.4847482740879059
0.3889640271663666
0.2883143424987793
0.18493178486824036
0.08060397952795029
-0.023251064121723175
-0.12552112340927124
-0.22527408599853516
-0.32162046432495117
-0.41360917687416077
-0.5001643300056458
-0.5800891518592834
-0.6520934700965881
-0.7148566246032715
-0.7670770287513733
-0.8075349926948547
-0.8351390361785889
-0.8489910364151001
-0.8484553694725037
-0.8332350254058838
-0.8034462332725525
-0.7596588730812073
-0.7028864622116089
-0.6344984173774719
-0.5560885667800903
-0.46930286288261414
-0.3757234513759613
-0.27681583166122437
-0.1739521026611328
-0.06848793476819992
0.03815282881259918
0.14442655444145203
0.24864792823791504
0.34902772307395935
0.4437399208545685
0.531012773513794
0.6092281937599182
0.6769950985908508
0.7332136631011963
0.7770968079566956
0.8081696629524231
0.8262423276901245
0.8313626050949097
0.8237709999084473
0.8038439750671387
0.7720515727996826
0.7289209365844727
0.6750229001045227
0.6109656691551208
0.537411630153656
0.45510348677635193
0.3649033308029175
0.2678331136703491
0.16511759161949158
0.05821441859006882
-0.05115612596273422
-0.16102316975593567
-0.26919132471084595
-0.37331584095954895
-0.47102275490760803
-0.5600559115409851
-0.6384468078613281
-0.7046635746955872
-0.7576919794082642
-0.7970466613769531
-0.822690486907959
-0.8349174857139587
-0.8342185616493225
-0.8211701512336731
-0.7963499426841736
-0.7602986693382263
-0.7135082483291626
-0.6564372181892395
-0.5895534157752991
-0.513388991355896
-0.4286072552204132
-0.33607199788093567
-0.23691079020500183
-0.13255101442337036
-0.024733401834964752
0.08452633768320084
0.19301116466522217
0.29841184616088867
0.398455411195755
0.4910414218902588
0.5743466019630432
0.6469008326530457
0.7076372504234314
0.7558905482292175
0.7913857102394104
0.8142023682594299
0.8247446417808533
0.8236997723579407
0.8120138049125671
0.7699505686759949
0.7465043663978577
0.7084479928016663
0.6566210985183716
0.5925189852714539
0.5181769728660583
0.4359546899795532
0.3482591211795807
0.25727716088294983
0.16478854417800903
0.07209452241659164
-0.019933141767978668
-0.11071646958589554
-0.19978371262550354
-0.28660061955451965
-0.37043496966362
-0.450293630361557
-0.5249238610267639
-0.5928733944892883
-0.652579665184021
-0.7024776935577393
-0.7411041855812073
-0.7672005295753479
-0.7798131108283997
-0.7783849239349365
-0.7628368735313416
-0.733600914478302
-0.6916003823280334
-0.6381497979164124
-0.5747913122177124
-0.5031037330627441
-0.42454564571380615
-0.34038785099983215
-0.25172385573387146
-0.15956681966781616
-0.0649486556649208
0.03098408132791519
0.12692338228225708
0.22139394283294678
0.3127935528755188
0.39945730566978455
0.47974464297294617
0.5521194338798523
0.615228533744812
0.6679544448852539
0.7094481587409973
0.7391409873962402
0.7567309737205505
0.7621583342552185
0.7555733323097229
0.73729407787323
0.707772970199585
0.6675612330436707
0.6172851920127869
0.5576329231262207
0.48935189843177795
0.4132578372955322
0.3302581310272217
0.24136948585510254
0.14775103330612183
0.05072235316038132
-0.04822210222482681
-0.14741194248199463
-0.24501606822013855
-0.33908191323280334
-0.4276004731655121
-0.5086032748222351
-0.5802799463272095
-0.6411182284355164
-0.6900177597999573
-0.7263484597206116
-0.7499403357505798
-0.7609983682632446
-0.7599869966506958
-0.7475093007087708
-0.724208414554596
-0.6907106041908264
-0.6475889682769775
-0.5953711867332458
-0.5345566272735596
-0.465658575296402
-0.3892560601234436
-0.30604925751686096
-0.21692118048667908
-0.1229865625500679
-0.025620393455028534
0.07353081554174423
0.17258471250534058
0.26949048042297363
0.3621242940425873
0.44841450452804565
0.5264527201652527
0.5946076512336731
0.6516016125679016
0.6965562105178833
0.7290125489234924
0.7489233016967773
0.756629467010498
0.7528265118598938
0.7385274171829224
0.6888858675956726
0.666555643081665
0.6305634379386902
0.5820339918136597
0.5227518081665039
0.45495861768722534
0.38106581568717957
0.3033464252948761
0.22368749976158142
0.14345204830169678
0.06347360461950302
-0.01583275943994522
-0.09429637342691422
-0.17179283499717712
-0.24805372953414917
-0.32253190875053406
-0.39432772994041443
-0.46218815445899963
-0.5245712995529175
-0.5797610878944397
-0.6260150671005249
-0.6617133021354675
-0.685510516166687
-0.6964734196662903
-0.6941817402839661
-0.6787928938865662
-0.6510255932807922
-0.6120694875717163
-0.5634074211120605
-0.5065972805023193
-0.4430800974369049
-0.37406089901924133
-0.30049434304237366
-0.2231629490852356
-0.1427954137325287
-0.060174353420734406
0.023782797157764435
0.10799255222082138
0.191209614276886
0.27206534147262573
0.3491221070289612
0.4209371507167816
0.4861234128475189
0.5434125661849976
0.5917091965675354
0.6301245093345642
0.658000648021698
0.6749172210693359
0.6806879639625549
0.6753454804420471
0.659119725227356
0.6324136853218079
0.5957764983177185
0.5498741865158081
0.49546799063682556
0.43339526653289795
0.364553302526474
0.289899080991745
0.21045231819152832
0.12730330228805542
0.04162288457155228
-0.04532643407583237
-0.1321885883808136
-0.21751326322555542
-0.2997695505619049
-0.3773709237575531
-0.4487150013446808
-0.5122551321983337
-0.5665974020957947
-0.6106128096580505
-0.6435335278511047
-0.6650097370147705
-0.675084114074707
-0.674117386341095
-0.6626744270324707
-0.641420841217041
-0.6110424399375916
-0.5721917748451233
-0.5254701972007751
-0.47142747044563293
-0.41058632731437683
-0.34347036480903625
-0.2706487476825714
-0.19278958439826965
-0.11070791631937027
-0.025417692959308624
0.061834268271923065
0.1495566964149475
0.23603400588035583
0.31938692927360535
0.3976661264896393
0.46896830201148987
0.5315588116645813
0.5839894413948059
0.6251770853996277
0.6544706225395203
0.6716689467430115
0.677017331123352
0.671183168888092
0.6552112102508545
0.595045268535614
0.5741986036300659
0.5411810278892517
0.4973519444465637
0.4446467459201813
0.3853136897087097
0.32159751653671265
0.25545915961265564
0.18838423490524292
0.12131249159574509
0.05469375103712082
-0.01138574630022049
-0.07702026516199112
-0.1422984004020691
-0.20712721347808838
-0.2711056172847748
-0.3334446847438812
-0.39295491576194763
-0.44811275601387024
-0.49717339873313904
-0.5383475422859192
-0.5699859857559204
-0.5907676219940186
-0.5998533368110657
-0.5969916582107544
-0.5825424790382385
-0.5574125647544861
-0.5228984951972961
-0.48047104477882385
-0.4315522015094757
-0.3773542642593384
-0.31881487369537354
-0.2566368281841278
-0.19138115644454956
-0.1235872134566307
-0.05386137217283249
0.017068810760974884
0.08834078162908554
0.1589651107788086
0.22785183787345886
0.29384684562683105
0.3557650148868561
0.41242679953575134
0.4627089202404022
0.5055758953094482
0.5401313900947571
0.56564861536026
0.5815989971160889
0.5876668095588684
0.5837560892105103
0.5699856281280518
0.5466825366020203
0.5143594741821289
0.4736919403076172
0.42548665404319763
0.37064632773399353
0.31013867259025574
0.24496212601661682
0.17613065242767334
0.10465986281633377
0.031566135585308075
-0.04212401062250137
-0.1153673604130745
-0.1870918571949005
-0.2561829686164856
-0.3214840888977051
-0.3818006217479706
-0.4359159767627716
-0.48264995217323303
-0.5209329724311829
-0.5499224662780762
-0.569092333316803
-0.5782791972160339
-0.5776717066764832
-0.5677273869514465
-0.5490747094154358
-0.5224222540855408
-0.4884766638278961
-0.44790783524513245
-0.40132150053977966
-0.3492601811885834
-0.2922140955924988
-0.23065057396888733
-0.16505184769630432
-0.09596379846334457
-0.024058349430561066
0.04981482774019241
0.12457501143217087
0.19889435172080994
0.27121052145957947
0.33979490399360657
0.40284276008605957
0.45860543847084045
0.5055264830589294
0.5423614978790283
0.5682747960090637
0.582901656627655
0.5863614082336426
0.5792517066001892
0.5626022219657898
0.48950254917144775
0.4707377851009369
0.4418362081050873
0.40427204966545105
0.3599356710910797
0.31085118651390076
0.2588958144187927
0.20558366179466248
0.1519569754600525
0.09858246892690659
0.04562836140394211
-0.0070048049092292786
-0.059531696140766144
-0.11212731152772903
-0.16478875279426575
-0.21721681952476501
-0.26874569058418274
-0.31832244992256165
-0.3645540475845337
-0.4058244526386261
-0.4404660761356354
-0.46695926785469055
-0.4841301739215851
-0.49130502343177795
-0.4883899986743927
-0.4758590757846832
-0.4546438157558441
-0.42595043778419495
-0.39105626940727234
-0.35111990571022034
-0.30708327889442444
-0.25965723395347595
-0.20937612652778625
-0.15668568015098572
-0.10202308744192123
-0.045876868069171906
0.011189840734004974
0.06853572279214859
0.125444233417511
0.1811397671699524
0.2347906529903412
0.2855157256126404
0.33239826560020447
0.3745029866695404
0.4109094440937042
0.44075411558151245
0.46327534317970276
0.4778599441051483
0.4840775728225708
0.48170724511146545
0.4707489013671875
0.4514324963092804
0.4242025911808014
0.3897012770175934
0.34873470664024353
0.302228182554245
0.25117596983909607
0.19659212231636047
0.13946262001991272
0.08071815222501755
0.021218769252300262
-0.03824252635240555
-0.09692011028528214
-0.15409937500953674
-0.20905813574790955
-0.261051744222641
-0.30928564071655273
-0.3529070317745209
-0.3910107910633087
-0.42269131541252136
-0.4471152126789093
-0.46363821625709534
-0.4719013273715973
-0.4718755781650543
-0.4638480246067047
-0.44834455847740173
-0.42603716254234314
-0.3976534903049469
-0.3639056384563446
-0.32544204592704773
-0.28282636404037476
-0.23652729392051697
-0.1869284212589264
-0.1343533992767334
-0.07911653071641922
-0.021580688655376434
0.03777136653661728
0.098262719810009
0.15897008776664734
0.21870115399360657
0.27602291107177734
0.32932808995246887
0.3769569993019104
0.4173332154750824
0.4491162598133087
0.4713269770145416
0.4834361970424652
0.4854253828525543
0.47777730226516724
0.4614523947238922
0.37382498383522034
0.3579319715499878
0.33441510796546936
0.30468055605888367
0.2703538239002228
0.23302724957466125
0.19405227899551392
0.1544274389743805
0.11476283520460129
0.07532542198896408
0.03611665219068527
-0.0030215755105018616
-0.04230303317308426
-0.08188480883836746
-0.12177286297082901
-0.16173020005226135
-0.20122048258781433
-0.23938754200935364
-0.27509161829948425
-0.3070070743560791
-0.3337722718715668
-0.3541688621044159
-0.36729568243026733
-0.3726867139339447
-0.37035900354385376
-0.36076101660728455
-0.3446637690067291
-0.3229900002479553
-0.2966698408126831
-0.2665260434150696
-0.23323598504066467
-0.19733858108520508
-0.15928667783737183
-0.11949168890714645
-0.07835618406534195
-0.03628955036401749
0.006291411817073822
0.04896385222673416
0.09129730612039566
0.13284039497375488
0.17310377955436707
0.2115401327610016
0.24752670526504517
0.28036555647850037
0.30930036306381226
0.33355388045310974
0.35237497091293335
0.36510536074638367
0.3712269961833954
0.3704087436199188
0.36253878474235535
0.3477371335029602
0.32635363936424255
0.2989550828933716
0.2662885785102844
0.22924047708511353
0.1887723207473755
0.14586016535758972
0.10142619162797928
0.056300707161426544
0.01118413358926773
-0.03334631770849228
-0.07682376354932785
-0.11885372549295425
-0.15907278656959534
-0.19710800051689148
-0.23253843188285828
-0.26486724615097046
-0.29350242018699646
-0.31776610016822815
-0.3369391858577728
-0.35035380721092224
-0.35750433802604675
-0.3581525981426239
-0.35236814618110657
-0.34051045775413513
-0.323151558637619
-0.30098071694374084
-0.27471303939819336
-0.24501535296440125
-0.21245846152305603
-0.17748260498046875
-0.14040052890777588
-0.10140488296747208
-0.06061006337404251
-0.018116749823093414
0.02591726928949356
0.07118422538042068
0.1171550378203392
0.16303017735481262
0.2077261209487915
0.24991941452026367
0.2881385087966919
0.3208974301815033
0.3468463718891144
0.3649199306964874
0.3744620084762573
0.3753027617931366
0.3677811324596405
0.35273757576942444
0.25009486079216003
0.23796522617340088
0.22106203436851501
0.2005329132080078
0.17753487825393677
0.15306824445724487
0.1278781294822693
0.10243462771177292
0.07696404308080673
0.0515131875872612
0.026013873517513275
0.0003430470824241638
-0.025620348751544952
-0.05193839222192764
-0.07856453210115433
-0.10529077798128128
-0.13171720504760742
-0.1572352647781372
-0.18106555938720703
-0.20232000946998596
-0.22011497616767883
-0.2336905300617218
-0.24251338839530945
-0.24634075164794922
-0.24521586298942566
-0.2394198179244995
-0.229385107755661
-0.2156103253364563
-0.1985885202884674
-0.17878443002700806
-0.15663102269172668
-0.13255175948143005
-0.10697553306818008
-0.08032513409852982
-0.05300261825323105
-0.025359369814395905
0.0023227855563163757
0.029834799468517303
0.057020507752895355
0.0837491974234581
0.1098715290427208
0.13517776131629944
0.1593594253063202
0.18199074268341064
0.2025277316570282
0.2203340232372284
0.2347303330898285
0.24506166577339172
0.25076210498809814
0.2514183819293976
0.24681362509727478
0.23695677518844604
0.22208327054977417
0.20264437794685364
0.17927664518356323
0.15275636315345764
0.12394040077924728
0.0936998799443245
0.06284718960523605
0.032079316675662994
0.0019390657544136047
-0.02719857543706894
-0.05510885268449783
-0.08167975395917892
-0.10686025768518448
-0.1306057572364807
-0.15282920002937317
-0.17336344718933105
-0.1919267475605011
-0.20810937881469727
-0.22138521075248718
-0.2311619222164154
-0.23688295483589172
-0.2381456196308136
-0.23480108380317688
-0.22699084877967834
-0.21512141823768616
-0.19977471232414246
-0.18161314725875854
-0.1612790822982788
-0.1393209993839264
-0.11614551395177841
-0.09199092537164688
-0.06693746894598007
-0.040935613214969635
-0.013866342604160309
0.014381267130374908
0.04382193833589554
0.07428843528032303
0.10536506026983261
0.1363488733768463
0.166261225938797
0.19391444325447083
0.21801424026489258
0.23730576038360596
0.2507225573062897
0.2575288414955139
0.25741809606552124
0.2505757808685303
0.23766624927520752
0.12086882442235947
0.1133514866232872
0.10407739132642746
0.09375657886266708