# vtk DataFile Version 3.0
2D PINN Solution
ASCII
DATASET STRUCTURED_GRID
DIMENSIONS 100 100 1
POINTS 10000 float
-1.0 -1.0 0.0
-0.9797979797979798 -1.0 0.0
-0.9595959595959596 -1.0 0.0
-0.9393939393939394 -1.0 0.0
-0.9191919191919192 -1.0 0.0
-0.898989898989899 -1.0 0.0
-0.8787878787878788 -1.0 0.0
-0.8585858585858586 -1.0 0.0
-0.8383838383838383 -1.0 0.0
-0.8181818181818181 -1.0 0.0
-0.797979797979798 -1.0 0.0
-0.7777777777777778 -1.0 0.0
-0.7575757575757576 -1.0 0.0
-0.7373737373737373 -1.0 0.0
-0.7171717171717171 -1.0 0.0
-0.696969696969697 -1.0 0.0
-0.6767676767676767 -1.0 0.0
-0.6565656565656566 -1.0 0.0
-0.6363636363636364 -1.0 0.0
-0.6161616161616161 -1.0 0.0
-0.5959595959595959 -1.0 0.0
-0.5757575757575757 -1.0 0.0
-0.5555555555555556 -1.0 0.0
-0.5353535353535352 -1.0 0.0
-0.5151515151515151 -1.0 0.0
-0.4949494949494949 -1.0 0.0
-0.4747474747474747 -1.0 0.0
-0.4545454545454545 -1.0 0.0
-0.43434343434343425 -1.0 0.0
-0.41414141414141414 -1.0 0.0
-0.3939393939393939 -1.0 0.0
-0.3737373737373737 -1.0 0.0
-0.3535353535353535 -1.0 0.0
-0.33333333333333326 -1.0 0.0
-0.31313131313131304 -1.0 0.0
-0.2929292929292928 -1.0 0.0
-0.2727272727272727 -1.0 0.0
-0.2525252525252525 -1.0 0.0
-0.23232323232323226 -1.0 0.0
-0.21212121212121204 -1.0 0.0
-0.19191919191919182 -1.0 0.0
-0.1717171717171716 -1.0 0.0
-0.1515151515151515 -1.0 0.0
-0.13131313131313127 -1.0 0.0
-0.11111111111111105 -1.0 0.0
-0.09090909090909083 -1.0 0.0
-0.07070707070707061 -1.0 0.0
-0.050505050505050386 -1.0 0.0
-0.030303030303030276 -1.0 0.0
-0.010101010101010055 -1.0 0.0
0.010101010101010166 -1.0 0.0
0.030303030303030498 -1.0 0.0
0.05050505050505061 -1.0 0.0
0.07070707070707072 -1.0 0.0
0.09090909090909105 -1.0 0.0
0.11111111111111116 -1.0 0.0
0.1313131313131315 -1.0 0.0
0.1515151515151516 -1.0 0.0
0.1717171717171717 -1.0 0.0
0.19191919191919204 -1.0 0.0
0.21212121212121215 -1.0 0.0
0.2323232323232325 -1.0 0.0
0.2525252525252526 -1.0 0.0
0.27272727272727293 -1.0 0.0
0.29292929292929304 -1.0 0.0
0.31313131313131315 -1.0 0.0
0.3333333333333335 -1.0 0.0
0.3535353535353536 -1.0 0.0
0.3737373737373739 -1.0 0.0
0.39393939393939403 -1.0 0.0
0.41414141414141437 -1.0 0.0
0.4343434343434345 -1.0 0.0
0.4545454545454546 -1.0 0.0
0.4747474747474749 -1.0 0.0
0.49494949494949503 -1.0 0.0
0.5151515151515154 -1.0 0.0
0.5353535353535355 -1.0 0.0
0.5555555555555556 -1.0 0.0
0.5757575757575759 -1.0 0.0
0.595959595959596 -1.0 0.0
0.6161616161616164 -1.0 0.0
0.6363636363636365 -1.0 0.0
0.6565656565656568 -1.0 0.0
0.6767676767676769 -1.0 0.0
0.696969696969697 -1.0 0.0
0.7171717171717173 -1.0 0.0
0.7373737373737375 -1.0 0.0
0.7575757575757578 -1.0 0.0
0.7777777777777779 -1.0 0.0
0.7979797979797982 -1.0 0.0
0.8181818181818183 -1.0 0.0
0.8383838383838385 -1.0 0.0
0.8585858585858588 -1.0 0.0
0.8787878787878789 -1.0 0.0
0.8989898989898992 -1.0 0.0
0.9191919191919193 -1.0 0.0
0.9393939393939394 -1.0 0.0
0.9595959595959598 -1.0 0.0
0.9797979797979799 -1.0 0.0
1.0 -1.0 0.0
-1.0 -0.9797979797979798 0.0
-0.9797979797979798 -0.9797979797979798 0.0
-0.9595959595959596 -0.9797979797979798 0.0
-0.9393939393939394 -0.9797979797979798 0.0
-0.9191919191919192 -0.9797979797979798 0.0
-0.898989898989899 -0.9797979797979798 0.0
-0.8787878787878788 -0.9797979797979798 0.0
-0.8585858585858586 -0.9797979797979798 0.0
-0.8383838383838383 -0.9797979797979798 0.0
-0.8181818181818181 -0.9797979797979798 0.0
-0.797979797979798 -0.9797979797979798 0.0
-0.7777777777777778 -0.9797979797979798 0.0
-0.7575757575757576 -0.9797979797979798 0.0
-0.7373737373737373 -0.9797979797979798 0.0
-0.7171717171717171 -0.9797979797979798 0.0
-0.696969696969697 -0.9797979797979798 0.0
-0.6767676767676767 -0.9797979797979798 0.0
-0.6565656565656566 -0.9797979797979798 0.0
-0.6363636363636364 -0.9797979797979798 0.0
-0.6161616161616161 -0.9797979797979798 0.0
-0.5959595959595959 -0.9797979797979798 0.0
-0.5757575757575757 -0.9797979797979798 0.0
-0.5555555555555556 -0.9797979797979798 0.0
-0.5353535353535352 -0.9797979797979798 0.0
-0.5151515151515151 -0.9797979797979798 0.0
-0.4949494949494949 -0.9797979797979798 0.0
-0.4747474747474747 -0.9797979797979798 0.0
-0.4545454545454545 -0.9797979797979798 0.0
-0.43434343434343425 -0.9797979797979798 0.0
-0.41414141414141414 -0.9797979797979798 0.0
-0.3939393939393939 -0.9797979797979798 0.0
-0.3737373737373737 -0.9797979797979798 0.0
-0.3535353535353535 -0.9797979797979798 0.0
-0.33333333333333326 -0.9797979797979798 0.0
-0.31313131313131304 -0.9797979797979798 0.0
-0.2929292929292928 -0.9797979797979798 0.0
-0.2727272727272727 -0.9797979797979798 0.0
-0.2525252525252525 -0.9797979797979798 0.0
-0.23232323232323226 -0.9797979797979798 0.0
-0.21212121212121204 -0.9797979797979798 0.0
-0.19191919191919182 -0.9797979797979798 0.0
-0.1717171717171716 -0.9797979797979798 0.0
-0.1515151515151515 -0.9797979797979798 0.0
-0.13131313131313127 -0.9797979797979798 0.0
-0.11111111111111105 -0.9797979797979798 0.0
-0.09090909090909083 -0.9797979797979798 0.0
-0.07070707070707061 -0.9797979797979798 0.0
-0.050505050505050386 -0.9797979797979798 0.0
-0.030303030303030276 -0.9797979797979798 0.0
-0.010101010101010055 -0.9797979797979798 0.0
0.010101010101010166 -0.9797979797979798 0.0
0.030303030303030498 -0.9797979797979798 0.0
0.05050505050505061 -0.9797979797979798 0.0
0.07070707070707072 -0.9797979797979798 0.0
0.09090909090909105 -0.9797979797979798 0.0
0.11111111111111116 -0.9797979797979798 0.0
0.1313131313131315 -0.9797979797979798 0.0
0.1515151515151516 -0.9797979797979798 0.0
0.1717171717171717 -0.9797979797979798 0.0
0.19191919191919204 -0.9797979797979798 0.0
0.21212121212121215 -0.9797979797979798 0.0
0.2323232323232325 -0.9797979797979798 0.0
0.2525252525252526 -0.9797979797979798 0.0
0.27272727272727293 -0.9797979797979798 0.0
0.29292929292929304 -0.9797979797979798 0.0
0.31313131313131315 -0.9797979797979798 0.0
0.3333333333333335 -0.9797979797979798 0.0
0.3535353535353536 -0.9797979797979798 0.0
0.3737373737373739 -0.9797979797979798 0.0
0.39393939393939403 -0.9797979797979798 0.0
0.41414141414141437 -0.9797979797979798 0.0
0.4343434343434345 -0.9797979797979798 0.0
0.4545454545454546 -0.9797979797979798 0.0
0.4747474747474749 -0.9797979797979798 0.0
0.49494949494949503 -0.9797979797979798 0.0
0.5151515151515154 -0.9797979797979798 0.0
0.5353535353535355 -0.9797979797979798 0.0
0.5555555555555556 -0.9797979797979798 0.0
0.5757575757575759 -0.9797979797979798 0.0
0.595959595959596 -0.9797979797979798 0.0
0.6161616161616164 -0.9797979797979798 0.0
0.6363636363636365 -0.9797979797979798 0.0
0.6565656565656568 -0.9797979797979798 0.0
0.6767676767676769 -0.9797979797979798 0.0
0.696969696969697 -0.9797979797979798 0.0
0.7171717171717173 -0.9797979797979798 0.0
0.7373737373737375 -0.9797979797979798 0.0
0.7575757575757578 -0.9797979797979798 0.0
0.7777777777777779 -0.9797979797979798 0.0
0.7979797979797982 -0.9797979797979798 0.0
0.8181818181818183 -0.9797979797979798 0.0
0.8383838383838385 -0.9797979797979798 0.0
0.8585858585858588 -0.9797979797979798 0.0
0.8787878787878789 -0.9797979797979798 0.0
0.8989898989898992 -0.9797979797979798 0.0
0.9191919191919193 -0.9797979797979798 0.0
0.9393939393939394 -0.9797979797979798 0.0
0.9595959595959598 -0.9797979797979798 0.0
0.9797979797979799 -0.9797979797979798 0.0
1.0 -0.9797979797979798 0.0
-1.0 -0.9595959595959596 0.0
-0.9797979797979798 -0.9595959595959596 0.0
-0.9595959595959596 -0.9595959595959596 0.0
-0.9393939393939394 -0.9595959595959596 0.0
-0.9191919191919192 -0.9595959595959596 0.0
-0.898989898989899 -0.9595959595959596 0.0
-0.8787878787878788 -0.9595959595959596 0.0
-0.8585858585858586 -0.9595959595959596 0.0
-0.8383838383838383 -0.9595959595959596 0.0
-0.8181818181818181 -0.9595959595959596 0.0
-0.797979797979798 -0.9595959595959596 0.0
-0.7777777777777778 -0.9595959595959596 0.0
-0.7575757575757576 -0.9595959595959596 0.0
-0.7373737373737373 -0.9595959595959596 0.0
-0.7171717171717171 -0.9595959595959596 0.0
-0.696969696969697 -0.9595959595959596 0.0
-0.6767676767676767 -0.9595959595959596 0.0
-0.6565656565656566 -0.9595959595959596 0.0
-0.6363636363636364 -0.9595959595959596 0.0
-0.6161616161616161 -0.9595959595959596 0.0
-0.5959595959595959 -0.9595959595959596 0.0
-0.5757575757575757 -0.9595959595959596 0.0
-0.5555555555555556 -0.9595959595959596 0.0
-0.5353535353535352 -0.9595959595959596 0.0
-0.5151515151515151 -0.9595959595959596 0.0
-0.4949494949494949 -0.9595959595959596 0.0
-0.4747474747474747 -0.9595959595959596 0.0
-0.4545454545454545 -0.9595959595959596 0.0
-0.43434343434343425 -0.9595959595959596 0.0
-0.41414141414141414 -0.9595959595959596 0.0
-0.3939393939393939 -0.9595959595959596 0.0
-0.3737373737373737 -0.9595959595959596 0.0
-0.3535353535353535 -0.9595959595959596 0.0
-0.33333333333333326 -0.9595959595959596 0.0
-0.31313131313131304 -0.9595959595959596 0.0
-0.2929292929292928 -0.9595959595959596 0.0
-0.2727272727272727 -0.9595959595959596 0.0
-0.2525252525252525 -0.9595959595959596 0.0
-0.23232323232323226 -0.9595959595959596 0.0
-0.21212121212121204 -0.9595959595959596 0.0
-0.19191919191919182 -0.9595959595959596 0.0
-0.1717171717171716 -0.9595959595959596 0.0
-0.1515151515151515 -0.9595959595959596 0.0
-0.13131313131313127 -0.9595959595959596 0.0
-0.11111111111111105 -0.9595959595959596 0.0
-0.09090909090909083 -0.9595959595959596 0.0
-0.07070707070707061 -0.9595959595959596 0.0
-0.050505050505050386 -0.9595959595959596 0.0
-0.030303030303030276 -0.9595959595959596 0.0
-0.010101010101010055 -0.9595959595959596 0.0
0.010101010101010166 -0.9595959595959596 0.0
0.030303030303030498 -0.9595959595959596 0.0
0.05050505050505061 -0.9595959595959596 0.0
0.07070707070707072 -0.9595959595959596 0.0
0.09090909090909105 -0.9595959595959596 0.0
0.11111111111111116 -0.9595959595959596 0.0
0.1313131313131315 -0.9595959595959596 0.0
0.1515151515151516 -0.9595959595959596 0.0
0.1717171717171717 -0.9595959595959596 0.0
0.19191919191919204 -0.9595959595959596 0.0
0.21212121212121215 -0.9595959595959596 0.0
[...]
POINT_DATA 10000
SCALARS u float 1
LOOKUP_TABLE default
0.12050037831068039
0.07993566244840622
0.03959294408559799
-0.0006721094250679016
-0.041066206991672516
-0.08175236731767654
-0.12274552136659622
-0.1638227105140686
-0.20445731282234192
-0.24379828572273254
-0.28069794178009033
-0.31380507349967957
-0.3417142629623413
-0.36315152049064636
-0.37714681029319763
-0.3831743896007538
-0.3812057673931122
-0.37167468667030334
-0.3553633689880371
-0.33324238657951355
-0.3063005805015564
-0.2754267156124115
-0.24135103821754456
-0.20464685559272766
-0.1657816469669342
-0.12516337633132935
-0.08318520337343216
-0.04024221748113632
0.0032621100544929504
0.04691062122583389
0.09027224034070969
0.13288947939872742
0.17425787448883057
0.21381524205207825
0.25091829895973206
0.28485068678855896
0.31483379006385803
0.34007206559181213
0.3597973883152008
0.3733336627483368
0.3801458775997162
0.37989041209220886
0.3724398910999298
0.35790035128593445
0.33661219477653503
0.30913060903549194
0.2761975824832916
0.23869723081588745
0.1975923478603363
0.153864324092865
0.10844989866018295
0.06219411641359329
0.015823982656002045
-0.030058659613132477
-0.07495465129613876
-0.11843521147966385
-0.16010278463363647
-0.19954827427864075
-0.23631936311721802
-0.2698916792869568
-0.29965314269065857
-0.3249097764492035
-0.3449358642101288
-0.35905662178993225
-0.3667641580104828
-0.36781635880470276
-0.3622824251651764
-0.35052111744880676
-0.3331087529659271
-0.3107418715953827
-0.28414401412010193
-0.25399574637413025
-0.2208777368068695
-0.18524685502052307
-0.14742347598075867
-0.10761307924985886
-0.06593886762857437
-0.02250773459672928
0.02251320332288742
0.06881073862314224
0.11585091799497604
0.16282662749290466
0.20864877104759216
0.251986026763916
0.29135996103286743
0.32527244091033936
0.35235825181007385
0.3715318739414215
0.38211187720298767
0.3838973939418793
0.37719979882240295
0.3628188669681549
0.34199070930480957
0.31629398465156555
0.287541925907135
0.25767552852630615
0.22865402698516846
0.20234069228172302
0.18042254447937012
0.16432389616966248
0.08163296431303024
0.055069051682949066
0.028456561267375946
0.0016740784049034119
-0.02540210634469986
-0.05284435302019119
-0.08061275631189346
-0.10850832611322403
-0.13612815737724304
-0.1628563404083252
-0.1878858506679535
-0.21028944849967957
-0.22912845015525818
-0.24357697367668152
-0.2530437111854553
-0.2572402060031891
-0.25619348883628845
-0.25019583106040955
-0.2397204339504242
-0.22532105445861816
-0.20755383372306824
-0.18693310022354126
-0.16392990946769714
-0.13898620009422302
-0.11253281682729721
-0.08498882502317429
-0.05674954503774643
-0.02815733104944229
0.0005073919892311096
0.02903474122285843
0.05726661533117294
0.08506200462579727
0.11226116865873337
0.1386404037475586
0.16387540102005005
0.1875232756137848
0.20902138948440552
0.22771644592285156
0.2429121732711792
0.25393471121788025
0.2602039873600006
0.26128891110420227
0.2569606900215149
0.24721282720565796
0.23227247595787048
0.21258267760276794
0.1887783706188202
0.16163691878318787
0.1320222020149231
0.1008172407746315
0.068851999938488
0.036844708025455475
0.005365155637264252
-0.025183148682117462
-0.05454445630311966
-0.08257419615983963
-0.10918686538934708
-0.13430547714233398
-0.1578127145767212
-0.17951416969299316
-0.19910714030265808
-0.2161688506603241
-0.23016366362571716
-0.24049833416938782
-0.24661770462989807
-0.24812161922454834
-0.24486535787582397
-0.23699668049812317
-0.22492662072181702
-0.20924806594848633
-0.1906352937221527
-0.16974180936813354
-0.14712780714035034
-0.12321042269468307
-0.09823919087648392
-0.07230152934789658
-0.04535441845655441
-0.01728571206331253
0.012008436024188995
0.04253760725259781
0.07412747293710709
0.10635348409414291
0.13850215077400208
0.16958636045455933
0.19840285181999207
0.22364020347595215
0.2440270185470581
0.25847262144088745
0.2662128508090973
0.26691535115242004
0.26073157787323
0.2483002245426178
0.23070165514945984
0.2093733251094818
0.18600907921791077
0.16243278980255127
0.1404874622821808
0.12191791087388992
0.10828370600938797
0.10086525231599808
0.04220154136419296
0.029594890773296356
0.016645334661006927
0.003315083682537079
-0.010382719337940216
-0.02438003569841385
-0.03854883462190628
-0.052690066397190094
-0.06653109937906265
-0.0797315314412117
-0.0919075682759285
-0.10266924649477005
-0.11167121678590775
-0.11865399032831192
-0.1234610304236412
-0.12602972984313965
-0.1263602375984192
-0.12448456138372421
-0.12044910341501236
-0.11430632323026657
-0.10614622384309769
-0.0961187407374382
-0.0844622328877449
-0.07151586562395096
-0.0576912984251976
-0.04343044012784958
-0.02913137525320053
-0.015094302594661713
-0.001480288803577423
0.011687837541103363
0.024501048028469086
0.037115879356861115
0.04969095438718796
0.06233113259077072
0.07503097504377365
0.08764398843050003
0.09986180812120438
0.1112312600016594
0.12118808180093765
0.12912645936012268
0.13446399569511414
0.13672280311584473
0.13558435440063477
0.1309320032596588
0.12286055833101273
0.11167148500680923
0.09784204512834549
0.08198639005422592
0.06480003148317337
0.04699418693780899
0.029236428439617157
0.012081794440746307
-0.00406869500875473
-0.018996410071849823
-0.032654814422130585
-0.04513958841562271
-0.056632690131664276
-0.06734070926904678
-0.07744201272726059
-0.08703462034463882
-0.09610820561647415
-0.10451216250658035
-0.11194790154695511
-0.11798454076051712
-0.12211856991052628
-0.12387657910585403
-0.12293759733438492
-0.11922342330217361
-0.11292683333158493
-0.10446692258119583
-0.09439384192228317
-0.0832836702466011
-0.07163646072149277
-0.059807188808918
-0.0479658767580986
-0.03609678894281387
-0.024021200835704803
-0.011453159153461456
0.0019338950514793396
0.016411207616329193
0.03212074190378189
0.04899030178785324
0.0666879191994667
0.08460458368062973
0.10188183933496475
0.11749627441167831
0.13036295771598816
0.13948646187782288
0.14409330487251282
0.14375463128089905
0.13846781849861145
0.12867775559425354
0.11525901407003403
0.09943705052137375
0.08270721882581711
0.06670255213975906
0.053079597651958466
0.043407149612903595
0.03906591981649399
0.04116649180650711
0.0022047385573387146
0.003457389771938324
0.004114381968975067
0.00424572080373764
0.004016987979412079
0.0036437734961509705
0.0033520683646202087
0.0033339783549308777
0.003718428313732147
0.00453602522611618
0.005699090659618378
0.0069979652762413025
0.008123479783535004
0.00873749703168869
0.008563987910747528
0.007483519613742828
0.005584411323070526
0.003156222403049469
0.0006137117743492126
-0.0016067549586296082
-0.0031510964035987854
-0.0038366541266441345
-0.0036889538168907166
-0.0029357001185417175
-0.0019515231251716614
-0.001163296401500702
-0.0009492859244346619
-0.0015501752495765686
-0.0030200406908988953
-0.0052132681012153625
-0.00782456248998642
-0.010441906750202179
-0.012621395289897919
-0.013960577547550201
-0.014157570898532867
-0.013061858713626862
-0.010699354112148285
-0.00727931410074234
-0.0031696781516075134
0.0011511221528053284
0.005160726606845856
0.008371539413928986
0.010399214923381805
0.011014394462108612
0.010167248547077179
0.007986210286617279
0.004756160080432892
0.0008784905076026917
-0.0031763985753059387
-0.006920628249645233
-0.009908504784107208
-0.011785469949245453
-0.012342460453510284
-0.01153600960969925
-0.009507514536380768
-0.006551362574100494
-0.0030696168541908264
0.000491119921207428
0.0037002041935920715
0.006198681890964508
0.0077387019991874695
0.008211188018321991
0.007669143378734589
0.006334193050861359
0.004577301442623138
0.002850048243999481
0.0015773400664329529
0.0010383650660514832
0.0012847259640693665
0.0021358057856559753
0.003231517970561981
0.004141874611377716
0.004478372633457184
0.0039749667048454285
0.0025509223341941833
0.00031972676515579224
-0.002431221306324005
-0.005274839699268341
-0.007718317210674286
-0.009277619421482086
-0.00955105572938919
-0.00829363614320755
-0.005477733910083771
-0.001322828233242035
0.003704972565174103
0.008931882679462433
0.013558320701122284
0.01677689701318741
0.01788683980703354
0.01642598956823349
0.012256614863872528
0.005623839795589447
-0.002850048243999481
-0.012205936014652252
-0.021227501332759857
-0.028549589216709137
-0.03276940435171127
-0.03255630284547806
-0.026752494275569916
-0.014453165233135223
-0.038343288004398346
-0.023349203169345856
-0.009102828800678253
0.004554741084575653
0.017919473350048065
0.03132932633161545
0.04507835954427719
0.059325121343135834
0.0740259513258934
0.08887910097837448
0.10331030935049057
0.11651351302862167
0.12755843997001648
0.13556307554244995
0.1398824155330658
0.14027085900306702
0.13693022727966309
0.13044822216033936
0.12163803726434708
0.11135435849428177
0.10031547397375107
0.088997982442379
0.07758740335702896
0.06600146740674973
0.05396295338869095
0.04112175852060318
0.02717294543981552
0.011958889663219452
-0.004462890326976776
-0.02181083709001541
-0.03960225731134415
-0.05721644312143326
-0.07397439330816269
-0.08920953422784805
-0.10234425216913223
-0.11293844133615494
-0.12073185294866562
-0.12565752863883972
-0.12784233689308167
-0.1275748610496521
-0.12526166439056396
-0.12135157734155655
-0.11626806110143661
-0.11034830659627914
-0.10380095988512039
-0.09669435769319534
-0.08897139877080917
-0.08047572523355484
-0.0709957554936409
-0.06030713766813278
-0.0482192263007164
-0.03461629897356033
-0.019497595727443695
-0.0030102208256721497
0.014533661305904388
0.032671429216861725
0.050818316638469696
0.06832710653543472
0.08455302566289902
0.09891224652528763
0.11092554777860641
0.12025394290685654
0.12671583890914917
0.13031485676765442
0.1312413215637207
0.12984785437583923
0.12657910585403442
0.12185674160718918
0.11596836894750595
0.10900118201971054
0.10085368901491165
0.09130885452032089
0.08013875037431717
0.06720674782991409
0.05253273993730545
0.0363239124417305
0.018965356051921844
0.000985763967037201
-0.016992665827274323
-0.03432198613882065
-0.05038539320230484
-0.06466894596815109
-0.0768156424164772
-0.08666659146547318
-0.09428692609071732
-0.09995049983263016
-0.10410474985837936
-0.10729146748781204
-0.11004918068647385
-0.11280889064073563
-0.11579442769289017
-0.1189565435051918
-0.1219429150223732
-0.12410882860422134
-0.1245827004313469
-0.12233594805002213
-0.11628987640142441
-0.10540959984064102
-0.0888039693236351
-0.06579882651567459
-0.07934514433145523
-0.05074290186166763
-0.022895820438861847
0.004393540322780609
0.03149118274450302
0.05879702419042587
0.08661174029111862
0.11501108855009079
0.14374226331710815
0.172163188457489
0.19924399256706238
0.22366052865982056
0.24397411942481995
0.2588844895362854
0.2674884796142578
0.26945802569389343
0.2650851309299469
0.2551615536212921
0.2407691478729248
0.22304648160934448
0.20298832654953003
0.18131741881370544
0.1584421992301941
0.13447272777557373
0.10931097716093063
0.08276250213384628
0.05466010421514511
0.024972938001155853
-0.006130032241344452
-0.03824598342180252
-0.07075803726911545
-0.10288912802934647
-0.1337687075138092
-0.16251540184020996
-0.1883085072040558
-0.2104443907737732
-0.22838187217712402
-0.24177280068397522
-0.2504759132862091
-0.25455042719841003
-0.2542320191860199
-0.24988457560539246
-0.24193689227104187
-0.23081690073013306
-0.2168995440006256
-0.20047232508659363
-0.18172809481620789
-0.16078177094459534
-0.13770058751106262
-0.11254038661718369
-0.0853801891207695
-0.05635804682970047
-0.02570457011461258
0.006234548985958099
0.038976095616817474
0.07189951092004776
0.10426431149244308
0.13525748252868652
0.16405120491981506
0.18986386060714722
0.2120172083377838
0.22996416687965393
0.24332094192504883
0.2518850564956665
0.2556595802307129
0.2548551857471466
0.2498621642589569
0.24117213487625122
0.22926190495491028
0.21449097990989685
0.19705283641815186
0.1769961714744568
0.15431106090545654
0.129023015499115
0.10127492994070053
0.07136698812246323
0.03976725786924362
0.0070885345339775085
-0.02594906836748123
-0.058568306267261505
-0.0899796113371849
-0.11944019049406052
-0.1463014781475067
-0.17005574703216553
-0.19037184119224548
-0.20711848139762878
-0.22035065293312073
-0.23028191924095154
-0.23722299933433533
-0.24150118231773376
-0.24337583780288696
-0.24295637011528015
-0.24016305804252625
-0.2346961796283722
-0.22606974840164185
-0.2136513590812683
-0.19674339890480042
-0.17465996742248535
-0.14681515097618103
-0.11279388517141342
-0.12056831270456314
-0.07852522283792496
-0.03707209974527359
0.003950826823711395
0.044887445867061615
0.08610742539167404
0.12783515453338623
0.1699950397014618
0.21209615468978882
0.25317394733428955
0.2918235659599304
0.32633763551712036
0.35494372248649597
0.3760937452316284
0.38873761892318726
0.3924961984157562
0.38767799735069275
0.37514522671699524
0.35608938336372375
0.3317854106426239
0.30339938402175903
0.2718585431575775
0.2377963662147522
0.2015743851661682
0.16334369778633118
0.12314821034669876
0.08102983981370926
0.03712712973356247
-0.008255086839199066
-0.05460727959871292
-0.1012081727385521
-0.14716675877571106
-0.19147410988807678
-0.23307734727859497
-0.27095234394073486
-0.30416208505630493
-0.33191362023353577
-0.35358771681785583
-0.36877548694610596
-0.3772869408130646
-0.3791572153568268
-0.3746204078197479
-0.36407142877578735
-0.34800320863723755
-0.32694509625434875
-0.30141082406044006
-0.2718612849712372
-0.2387000024318695
-0.20228451490402222
-0.1629514992237091
-0.12105069309473038
-0.07697389274835587
-0.031181879341602325
0.015772245824337006
0.06322643905878067
0.11040350049734116
0.15641820430755615
0.2003096044063568
0.24109211564064026
0.27781328558921814
0.30961474776268005
0.3357711732387543
0.3557218015193939
0.3690904378890991
0.3757116496562958
0.37564817070961
0.3692000210285187
0.3568611443042755
0.3392327129840851
0.31690871715545654
0.2903790771961212
0.2599932849407196
0.22599950432777405
0.18862119317054749
0.14814168214797974
0.10496371239423752
0.05963139981031418
0.012828730046749115
-0.034642525017261505
-0.08189772814512253
-0.128005713224411
-0.17202499508857727
-0.21305564045906067
-0.2502751052379608
-0.28299105167388916
-0.31067177653312683
-0.3329818546772003
-0.3497781455516815
-0.3610954284667969
-0.36710283160209656
-0.3680326044559479
-0.36411693692207336
-0.35551825165748596
-0.34228697419166565
-0.32433757185935974
-0.30147382616996765
-0.2734183371067047
-0.2398761808872223
-0.20060262084007263
-0.15546083450317383
-0.16160425543785095
-0.10636917501688004
-0.051367051899433136
0.0034190937876701355
0.05820011347532272
0.11319788545370102
0.16846132278442383
0.22369936108589172
0.2781679034233093
0.3306324779987335
0.37943655252456665
0.4226681888103485
0.4584196209907532
0.4850572645664215
0.5014790296554565
0.5072499513626099
0.5026142597198486
0.48836275935173035
0.4656413197517395
0.43573224544525146
0.39987674355506897
0.35915234684944153
0.31441953778266907
0.26631680130958557
0.21530303359031677
0.1617259383201599
0.10589975863695145
0.048182450234889984
-0.010954953730106354
-0.07088581472635269
-0.13080555200576782
-0.1897399127483368
-0.24658361077308655
-0.30015674233436584
-0.34927311539649963
-0.3928038477897644
-0.42973583936691284
-0.45921364426612854
-0.4805801212787628
-0.49340882897377014
-0.49752315878868103
-0.49300381541252136
-0.4801730811595917
-0.45955005288124084
-0.4317888915538788
-0.39761266112327576
-0.35774943232536316
-0.31289973855018616
-0.2637176811695099
-0.21082332730293274
-0.15482810139656067
-0.09636270254850388
-0.036109425127506256
0.02517937868833542
0.08666043728590012
0.14739540219306946
0.20635586977005005
0.2624409794807434
0.3145204484462738
0.3614887297153473
0.40232667326927185
0.43615201115608215
0.46224990487098694
0.48010680079460144
0.48942169547080994
0.4901372790336609
0.48245492577552795
0.46683549880981445
0.44394010305404663
0.4145359694957733
0.37937140464782715
0.33909761905670166
0.29423919320106506
0.24524331092834473
0.19255545735359192
0.13668829202651978
0.07826504856348038
0.018041975796222687
-0.04310513287782669
-0.1041957214474678
-0.16416755318641663
-0.22191205620765686
-0.2763049900531769
-0.3262510597705841
-0.3707338273525238
-0.40886569023132324
-0.4399375021457672
-0.463460236787796
-0.47917720675468445
-0.4870583713054657
-0.48726776242256165
-0.48010483384132385
-0.46593353152275085
-0.4451214373111725
-0.4179818034172058
-0.3847566545009613
-0.34561073780059814
-0.30066272616386414
-0.25003376603126526
-0.19389519095420837
-0.20184877514839172
-0.1338089108467102
-0.06545761972665787
0.0029673799872398376
0.07141142338514328
0.13982629776000977
0.20798823237419128
0.275339812040329
0.3408951759338379
0.40323981642723083
0.46061578392982483
0.511096179485321
0.5528095364570618
0.5841735005378723
0.6040847897529602
0.6120336055755615
0.6081134676933289
0.592936635017395
0.5674888491630554
0.5329627990722656
0.4905981123447418
0.44157421588897705
0.38694801926612854
0.3276335299015045
0.26441797614097595
0.19798770546913147
0.12897998094558716
0.058022819459438324
-0.014210768043994904
-0.0869530513882637
-0.1593095362186432
-0.2302396595478058
-0.2985716760158539
-0.3630392849445343
-0.4223388135433197
-0.4751920998096466
-0.5204103589057922
-0.5569437146186829
-0.5839326977729797
-0.6007426381111145
-0.6070053577423096
-0.6026447415351868
-0.5878822803497314
-0.5632190704345703
-0.5293870568275452
-0.48727574944496155
-0.4378573000431061
-0.3821152448654175
-0.3210027813911438
-0.2554251551628113
-0.18625077605247498
-0.11434026807546616
-0.04057673364877701
0.034104861319065094
0.1086919829249382
0.18209263682365417
0.25313109159469604
0.320568710565567
0.38313671946525574
0.43958795070648193
0.4887559413909912
0.5296140909194946
0.5613187551498413
0.5832422375679016
0.5949898362159729
0.5964196920394897
0.5876637697219849
0.5691407322883606
0.5415288805961609
0.5056983828544617
0.46259522438049316
0.4131268560886383
0.3580894470214844
0.2981637716293335
0.23397263884544373
0.16615179181098938
0.09541840106248856
0.022602416574954987
-0.05133751779794693
-0.12532487511634827
-0.19817420840263367
-0.2686178982257843
-0.33533820509910583
-0.3970053195953369
-0.4523266851902008
-0.500110924243927
-0.5393281579017639
-0.5691719055175781
-0.5891125798225403
-0.5989158153533936
-0.5986418724060059
-0.5886068940162659
-0.569322943687439
-0.5414199233055115
-0.5055732131004333
-0.4624362289905548
-0.4126109182834625
-0.3566361963748932
-0.2950110137462616
-0.22823047637939453
-0.24050065875053406
-0.16025277972221375
-0.07897938042879105
0.0027094408869743347
0.08436670154333115
0.1655561327934265
0.2456986904144287
0.3239463269710541
0.3991222679615021
0.4697403609752655
0.5340948700904846
0.5904046893119812
0.6369689106941223
0.6723309755325317
0.6954039335250854
0.7055684924125671
0.7027109265327454
0.6872000694274902
0.6598041653633118
0.6215736269950867
0.5737009644508362
0.5174193382263184
0.45393410325050354
0.38439416885375977
0.30988967418670654
0.23145058751106262
0.15005406737327576
0.06663572043180466
-0.01788254827260971
-0.10255251079797745
-0.1863642930984497
-0.26820769906044006
-0.3468611538410187
-0.42100420594215393
-0.48925843834877014
-0.5502437949180603
-0.6026467680931091
-0.645277738571167
-0.6771221160888672
-0.6973915696144104
-0.7055630087852478
-0.7014184594154358
-0.6850703358650208
-0.6569656729698181
-0.6178552508354187
-0.5687351822853088
-0.5107641816139221
-0.4451788365840912
-0.37321290373802185
-0.2960578501224518
-0.21484488248825073
-0.13065820932388306
-0.04457323998212814
0.04231185466051102
0.12884169816970825
0.2137850821018219
0.29583460092544556
0.37361785769462585
0.44573327898979187
0.5107966661453247
0.5675039887428284
0.6146948337554932
0.6514100432395935
0.6769303679466248
0.6907962560653687
0.6928216814994812
0.6831068992614746
0.6620461344718933
0.6303184628486633
0.5888411402702332
0.5386815667152405
0.48093727231025696
0.4166320860385895
0.3466717302799225
0.27186596393585205
0.1929900348186493
0.11086701601743698
0.02641899138689041