# vtk DataFile Version 3.0
2D PINN Solution
ASCII
DATASET STRUCTURED_GRID
DIMENSIONS 100 100 1
POINTS 10000 float
-1.0 -1.0 0.0
-0.9797979797979798 -1.0 0.0
-0.9595959595959596 -1.0 0.0
-0.9393939393939394 -1.0 0.0
-0.9191919191919192 -1.0 0.0
-0.898989898989899 -1.0 0.0
-0.8787878787878788 -1.0 0.0
-0.8585858585858586 -1.0 0.0
-0.8383838383838383 -1.0 0.0
-0.8181818181818181 -1.0 0.0
-0.797979797979798 -1.0 0.0
-0.7777777777777778 -1.0 0.0
-0.7575757575757576 -1.0 0.0
-0.7373737373737373 -1.0 0.0
-0.7171717171717171 -1.0 0.0
-0.696969696969697 -1.0 0.0
-0.6767676767676767 -1.0 0.0
-0.6565656565656566 -1.0 0.0
-0.6363636363636364 -1.0 0.0
-0.6161616161616161 -1.0 0.0
-0.5959595959595959 -1.0 0.0
-0.5757575757575757 -1.0 0.0
-0.5555555555555556 -1.0 0.0
-0.5353535353535352 -1.0 0.0
-0.5151515151515151 -1.0 0.0
-0.4949494949494949 -1.0 0.0
-0.4747474747474747 -1.0 0.0
-0.4545454545454545 -1.0 0.0
-0.43434343434343425 -1.0 0.0
-0.41414141414141414 -1.0 0.0
-0.3939393939393939 -1.0 0.0
-0.3737373737373737 -1.0 0.0
-0.3535353535353535 -1.0 0.0
-0.33333333333333326 -1.0 0.0
-0.31313131313131304 -1.0 0.0
-0.2929292929292928 -1.0 0.0
-0.2727272727272727 -1.0 0.0
-0.2525252525252525 -1.0 0.0
-0.23232323232323226 -1.0 0.0
-0.21212121212121204 -1.0 0.0
-0.19191919191919182 -1.0 0.0
-0.1717171717171716 -1.0 0.0
-0.1515151515151515 -1.0 0.0
-0.13131313131313127 -1.0 0.0
-0.11111111111111105 -1.0 0.0
-0.09090909090909083 -1.0 0.0
-0.07070707070707061 -1.0 0.0
-0.050505050505050386 -1.0 0.0
-0.030303030303030276 -1.0 0.0
-0.010101010101010055 -1.0 0.0
0.010101010101010166 -1.0 0.0
0.030303030303030498 -1.0 0.0
0.05050505050505061 -1.0 0.0
0.07070707070707072 -1.0 0.0
0.09090909090909105 -1.0 0.0
0.11111111111111116 -1.0 0.0
0.1313131313131315 -1.0 0.0
0.1515151515151516 -1.0 0.0
0.1717171717171717 -1.0 0.0
0.19191919191919204 -1.0 0.0
0.21212121212121215 -1.0 0.0
0.2323232323232325 -1.0 0.0
0.2525252525252526 -1.0 0.0
0.27272727272727293 -1.0 0.0
0.29292929292929304 -1.0 0.0
0.31313131313131315 -1.0 0.0
0.3333333333333335 -1.0 0.0
0.3535353535353536 -1.0 0.0
0.3737373737373739 -1.0 0.0
0.39393939393939403 -1.0 0.0
0.41414141414141437 -1.0 0.0
0.4343434343434345 -1.0 0.0
0.4545454545454546 -1.0 0.0
0.4747474747474749 -1.0 0.0
0.49494949494949503 -1.0 0.0
0.5151515151515154 -1.0 0.0
0.5353535353535355 -1.0 0.0
0.5555555555555556 -1.0 0.0
0.5757575757575759 -1.0 0.0
0.595959595959596 -1.0 0.0
0.6161616161616164 -1.0 0.0
0.6363636363636365 -1.0 0.0
0.6565656565656568 -1.0 0.0
0.6767676767676769 -1.0 0.0
0.696969696969697 -1.0 0.0
0.7171717171717173 -1.0 0.0
0.7373737373737375 -1.0 0.0
0.7575757575757578 -1.0 0.0
0.7777777777777779 -1.0 0.0
0.7979797979797982 -1.0 0.0
0.8181818181818183 -1.0 0.0
0.8383838383838385 -1.0 0.0
0.8585858585858588 -1.0 0.0
0.8787878787878789 -1.0 0.0
0.8989898989898992 -1.0 0.0
0.9191919191919193 -1.0 0.0
0.9393939393939394 -1.0 0.0
0.9595959595959598 -1.0 0.0
0.9797979797979799 -1.0 0.0
1.0 -1.0 0.0
-1.0 -0.9797979797979798 0.0
-0.9797979797979798 -0.9797979797979798 0.0
-0.9595959595959596 -0.9797979797979798 0.0
-0.9393939393939394 -0.9797979797979798 0.0
-0.9191919191919192 -0.9797979797979798 0.0
-0.898989898989899 -0.9797979797979798 0.0
-0.8787878787878788 -0.9797979797979798 0.0
-0.8585858585858586 -0.9797979797979798 0.0
-0.8383838383838383 -0.9797979797979798 0.0
-0.8181818181818181 -0.9797979797979798 0.0
-0.797979797979798 -0.9797979797979798 0.0
-0.7777777777777778 -0.9797979797979798 0.0
-0.7575757575757576 -0.9797979797979798 0.0
-0.7373737373737373 -0.9797979797979798 0.0
-0.7171717171717171 -0.9797979797979798 0.0
-0.696969696969697 -0.9797979797979798 0.0
-0.6767676767676767 -0.9797979797979798 0.0
-0.6565656565656566 -0.9797979797979798 0.0
-0.6363636363636364 -0.9797979797979798 0.0
-0.6161616161616161 -0.9797979797979798 0.0
-0.5959595959595959 -0.9797979797979798 0.0
-0.5757575757575757 -0.9797979797979798 0.0
-0.5555555555555556 -0.9797979797979798 0.0
-0.5353535353535352 -0.9797979797979798 0.0
-0.5151515151515151 -0.9797979797979798 0.0
-0.4949494949494949 -0.9797979797979798 0.0
-0.4747474747474747 -0.9797979797979798 0.0
-0.4545454545454545 -0.9797979797979798 0.0
-0.43434343434343425 -0.9797979797979798 0.0
-0.41414141414141414 -0.9797979797979798 0.0
-0.3939393939393939 -0.9797979797979798 0.0
-0.3737373737373737 -0.9797979797979798 0.0
-0.3535353535353535 -0.9797979797979798 0.0
-0.33333333333333326 -0.9797979797979798 0.0
-0.31313131313131304 -0.9797979797979798 0.0
-0.2929292929292928 -0.9797979797979798 0.0
-0.2727272727272727 -0.9797979797979798 0.0
-0.2525252525252525 -0.9797979797979798 0.0
-0.23232323232323226 -0.9797979797979798 0.0
-0.21212121212121204 -0.9797979797979798 0.0
-0.19191919191919182 -0.9797979797979798 0.0
-0.1717171717171716 -0.9797979797979798 0.0
-0.1515151515151515 -0.9797979797979798 0.0
-0.13131313131313127 -0.9797979797979798 0.0
-0.11111111111111105 -0.9797979797979798 0.0
-0.09090909090909083 -0.9797979797979798 0.0
-0.07070707070707061 -0.9797979797979798 0.0
-0.050505050505050386 -0.9797979797979798 0.0
-0.030303030303030276 -0.9797979797979798 0.0
-0.010101010101010055 -0.9797979797979798 0.0
0.010101010101010166 -0.9797979797979798 0.0
0.030303030303030498 -0.9797979797979798 0.0
0.05050505050505061 -0.9797979797979798 0.0
0.07070707070707072 -0.9797979797979798 0.0
0.09090909090909105 -0.9797979797979798 0.0
0.11111111111111116 -0.9797979797979798 0.0
0.1313131313131315 -0.9797979797979798 0.0
0.1515151515151516 -0.9797979797979798 0.0
0.1717171717171717 -0.9797979797979798 0.0
0.19191919191919204 -0.9797979797979798 0.0
0.21212121212121215 -0.9797979797979798 0.0
0.2323232323232325 -0.9797979797979798 0.0
0.2525252525252526 -0.9797979797979798 0.0
0.27272727272727293 -0.9797979797979798 0.0
0.29292929292929304 -0.9797979797979798 0.0
0.31313131313131315 -0.9797979797979798 0.0
0.3333333333333335 -0.9797979797979798 0.0
0.3535353535353536 -0.9797979797979798 0.0
0.3737373737373739 -0.9797979797979798 0.0
0.39393939393939403 -0.9797979797979798 0.0
0.41414141414141437 -0.9797979797979798 0.0
0.4343434343434345 -0.9797979797979798 0.0
0.4545454545454546 -0.9797979797979798 0.0
0.4747474747474749 -0.9797979797979798 0.0
0.49494949494949503 -0.9797979797979798 0.0
0.5151515151515154 -0.9797979797979798 0.0
0.5353535353535355 -0.9797979797979798 0.0
0.5555555555555556 -0.9797979797979798 0.0
0.5757575757575759 -0.9797979797979798 0.0
0.595959595959596 -0.9797979797979798 0.0
0.6161616161616164 -0.9797979797979798 0.0
0.6363636363636365 -0.9797979797979798 0.0
0.6565656565656568 -0.9797979797979798 0.0
0.6767676767676769 -0.9797979797979798 0.0
0.696969696969697 -0.9797979797979798 0.0
0.7171717171717173 -0.9797979797979798 0.0
0.7373737373737375 -0.9797979797979798 0.0
0.7575757575757578 -0.9797979797979798 0.0
0.7777777777777779 -0.9797979797979798 0.0
0.7979797979797982 -0.9797979797979798 0.0
0.8181818181818183 -0.9797979797979798 0.0
0.8383838383838385 -0.9797979797979798 0.0
0.8585858585858588 -0.9797979797979798 0.0
0.8787878787878789 -0.9797979797979798 0.0
0.8989898989898992 -0.9797979797979798 0.0
0.9191919191919193 -0.9797979797979798 0.0
0.9393939393939394 -0.9797979797979798 0.0
0.9595959595959598 -0.9797979797979798 0.0
0.9797979797979799 -0.9797979797979798 0.0
1.0 -0.9797979797979798 0.0
-1.0 -0.9595959595959596 0.0
-0.9797979797979798 -0.9595959595959596 0.0
-0.9595959595959596 -0.9595959595959596 0.0
-0.9393939393939394 -0.9595959595959596 0.0
-0.9191919191919192 -0.9595959595959596 0.0
-0.898989898989899 -0.9595959595959596 0.0
-0.8787878787878788 -0.9595959595959596 0.0
-0.8585858585858586 -0.9595959595959596 0.0
-0.8383838383838383 -0.9595959595959596 0.0
-0.8181818181818181 -0.9595959595959596 0.0
-0.797979797979798 -0.9595959595959596 0.0
-0.7777777777777778 -0.9595959595959596 0.0
-0.7575757575757576 -0.9595959595959596 0.0
-0.7373737373737373 -0.9595959595959596 0.0
-0.7171717171717171 -0.9595959595959596 0.0
-0.696969696969697 -0.9595959595959596 0.0
-0.6767676767676767 -0.9595959595959596 0.0
-0.6565656565656566 -0.9595959595959596 0.0
-0.6363636363636364 -0.9595959595959596 0.0
-0.6161616161616161 -0.9595959595959596 0.0
-0.5959595959595959 -0.9595959595959596 0.0
-0.5757575757575757 -0.9595959595959596 0.0
-0.5555555555555556 -0.9595959595959596 0.0
-0.5353535353535352 -0.9595959595959596 0.0
-0.5151515151515151 -0.9595959595959596 0.0
-0.4949494949494949 -0.9595959595959596 0.0
-0.4747474747474747 -0.9595959595959596 0.0
-0.4545454545454545 -0.9595959595959596 0.0
-0.43434343434343425 -0.9595959595959596 0.0
-0.41414141414141414 -0.9595959595959596 0.0
-0.3939393939393939 -0.9595959595959596 0.0
-0.3737373737373737 -0.9595959595959596 0.0
-0.3535353535353535 -0.9595959595959596 0.0
-0.33333333333333326 -0.9595959595959596 0.0
-0.31313131313131304 -0.9595959595959596 0.0
-0.2929292929292928 -0.9595959595959596 0.0
-0.2727272727272727 -0.9595959595959596 0.0
-0.2525252525252525 -0.9595959595959596 0.0
-0.23232323232323226 -0.9595959595959596 0.0
-0.21212121212121204 -0.9595959595959596 0.0
-0.19191919191919182 -0.9595959595959596 0.0
-0.1717171717171716 -0.9595959595959596 0.0
-0.1515151515151515 -0.9595959595959596 0.0
-0.13131313131313127 -0.9595959595959596 0.0
-0.11111111111111105 -0.9595959595959596 0.0
-0.09090909090909083 -0.9595959595959596 0.0
-0.07070707070707061 -0.9595959595959596 0.0
-0.050505050505050386 -0.9595959595959596 0.0
-0.030303030303030276 -0.9595959595959596 0.0
-0.010101010101010055 -0.9595959595959596 0.0
0.010101010101010166 -0.9595959595959596 0.0
0.030303030303030498 -0.9595959595959596 0.0
0.05050505050505061 -0.9595959595959596 0.0
0.07070707070707072 -0.9595959595959596 0.0
0.09090909090909105 -0.9595959595959596 0.0
0.11111111111111116 -0.9595959595959596 0.0
0.1313131313131315 -0.9595959595959596 0.0
0.1515151515151516 -0.9595959595959596 0.0
0.1717171717171717 -0.9595959595959596 0.0
0.19191919191919204 -0.9595959595959596 0.0
0.21212121212121215 -0.9595959595959596 0.0
[...]
POINT_DATA 10000
SCALARS u float 1
LOOKUP_TABLE default
0.7597295641899109
0.691002368927002
0.6079196333885193
0.5129762291908264
0.4090886414051056
0.2992863953113556
0.1864413321018219
0.07306372374296188
-0.03877345472574234
-0.1474055051803589
-0.25148239731788635
-0.3498536944389343
-0.44147929549217224
-0.5253731608390808
-0.6005924940109253
-0.6662489771842957
-0.7215377688407898
-0.765761137008667
-0.798345148563385
-0.8188526034355164
-0.8269883990287781
-0.8226103186607361
-0.8057405948638916
-0.7765882015228271
-0.7355635762214661
-0.6832965016365051
-0.6206286549568176
-0.5485914349555969
-0.4683615267276764
-0.38119667768478394
-0.288376122713089
-0.19114944338798523
-0.09071824699640274
0.01174762099981308
0.11507333070039749
0.2180176079273224
0.31921663880348206
0.4171486794948578
0.510128378868103
0.59633469581604
0.6738775372505188
0.7408762574195862
0.7955582737922668
0.836355447769165
0.8619996905326843
0.87161785364151
0.8648210167884827
0.8417770266532898
0.8032345175743103
0.7504954934120178
0.6852914690971375
0.609618604183197
0.5255234241485596
0.4349310100078583
0.33951619267463684
0.24067774415016174
0.1395721733570099
0.03720688074827194
-0.06545104831457138
-0.16737261414527893
-0.26738595962524414
-0.36414527893066406
-0.45614299178123474
-0.5417675971984863
-0.6193904280662537
-0.6874725818634033
-0.7446531057357788
-0.7898195385932922
-0.8221402168273926
-0.84107905626297
-0.8463723659515381
-0.8380053639411926
-0.8161682486534119
-0.7812362909317017
-0.7337355017662048
-0.6743331551551819
-0.6038356423377991
-0.5231985449790955
-0.43354806303977966
-0.33619654178619385
-0.23266181349754333
-0.12467316538095474
-0.014157511293888092
0.09679406136274338
0.20598945021629333
0.31122028827667236
0.41036784648895264
0.5015109181404114
0.5830228924751282
0.6536404490470886
0.7125021815299988
0.7591381669044495
0.7934399843215942
0.8155961632728577
0.8260295391082764
0.825335681438446
0.8142301440238953
0.7935155034065247
0.7640633583068848
0.726808488368988
0.6817237734794617
0.6153286099433899
0.537398636341095
0.450557678937912
0.35748907923698425
0.26066717505455017
0.16217365860939026
0.0636410340666771
-0.03369218856096268
-0.12885308265686035
-0.22099420428276062
-0.3092574179172516
-0.3927041292190552
-0.47029349207878113
-0.5409025549888611
-0.6033938527107239
-0.6566726565361023
-0.6997588276863098
-0.7318329215049744
-0.7522693276405334
-0.7606633305549622
-0.7568441033363342
-0.7408888339996338
-0.7131324410438538
-0.6741650700569153
-0.624819278717041
-0.566124439239502
-0.4992510974407196
-0.4254281222820282
-0.34586772322654724
-0.26170048117637634
-0.17394495010375977
-0.08351471275091171
0.008734308183193207
0.10193652659654617
0.19513267278671265
0.28719738125801086
0.37678930163383484
0.46233436465263367
0.5420505404472351
0.6140144467353821
0.6762629747390747
0.7269211411476135
0.7643384337425232
0.7872308492660522
0.7948024272918701
0.7868465781211853
0.7637885212898254
0.7266652584075928
0.6770110726356506
0.6166773438453674
0.5476096272468567
0.4716467559337616
0.3903750479221344
0.3050805330276489
0.21677270531654358
0.12627139687538147
0.034312859177589417
-0.058335743844509125
-0.15079444646835327
-0.24200168251991272
-0.33069169521331787
-0.4154072701931
-0.4945584237575531
-0.5665028095245361
-0.6296598315238953
-0.6826154589653015
-0.7242150902748108
-0.7536112666130066
-0.7702928781509399
-0.774065375328064
-0.7650179862976074
-0.743474543094635
-0.7099484205245972
-0.6650959849357605
-0.6096920967102051
-0.5446116328239441
-0.47082290053367615
-0.38939234614372253
-0.30149227380752563
-0.20841160416603088
-0.11156315356492996
-0.012491948902606964
0.08713158220052719
0.1855306625366211
0.2808615267276764
0.3712783753871918
0.4550148844718933
0.5304762721061707
0.5963214039802551
0.6515260338783264
0.6954115033149719
0.7276533842086792
0.7482383847236633
0.7574306130409241
0.7557152509689331
0.7437514066696167
0.7223405241966248
0.6923975944519043
0.6549435257911682
0.5904400944709778
0.52897047996521
0.4590890109539032
0.38322481513023376
0.3035496175289154
0.2217995524406433
0.13922208547592163
0.05663823336362839
-0.025409020483493805
-0.10649237781763077
-0.18613001704216003
-0.2636723816394806
-0.3382423222064972
-0.40873783826828003
-0.4738830626010895
-0.5323207378387451
-0.5827092528343201
-0.6238214373588562
-0.6546288132667542
-0.6743585467338562
-0.6825352907180786
-0.6790055632591248
-0.6639447808265686
-0.6378498673439026
-0.6015066504478455
-0.5559373497962952
-0.5023191571235657
-0.4418865740299225
-0.3758339583873749
-0.30524012446403503
-0.23101773858070374
-0.15391668677330017
-0.07456303387880325
0.006465725600719452
0.08855288475751877
0.17095431685447693
0.2527182102203369
0.3326406180858612
0.40924572944641113
0.48081424832344055
0.5454508066177368
0.6012004017829895
0.6461987495422363
0.678843080997467
0.6979616284370422
0.7029567956924438
0.6938873529434204
0.6714710593223572
0.6369836926460266
0.5920736789703369
0.5385310053825378
0.4780578017234802
0.41210800409317017
0.34182190895080566
0.26805010437965393
0.1914304792881012
0.11250229924917221
0.03181338310241699
-0.04999066889286041
-0.13210517168045044
-0.21352317929267883
-0.2930317223072052
-0.3692309558391571
-0.4405839145183563
-0.5054991841316223
-0.5624322295188904
-0.6099975109100342
-0.6470630764961243
-0.6728204488754272
-0.6868118643760681
-0.688922643661499
-0.6793408989906311
-0.6584994196891785
-0.6270197033882141
-0.5856540203094482
-0.5352499485015869
-0.47671857476234436
-0.41101720929145813
-0.339138925075531
-0.2621031403541565
-0.18096935749053955
-0.09683454781770706
-0.01085703819990158
0.07572384923696518
0.16157495975494385
0.24526554346084595
0.3252851665019989
0.4000946581363678
0.4681982696056366
0.5282310843467712
0.5790354013442993
0.6197393536567688
0.6497816443443298
0.6689266562461853
0.6772414445877075
0.6750696301460266
0.6629855036735535
0.6417648792266846
0.6123543381690979
0.5758447647094727
0.4893074929714203
0.43539687991142273
0.3761543333530426
0.31353095173835754
0.2490067481994629
0.18353593349456787
0.11760570853948593
0.05137660354375839
-0.01513487845659256
-0.0818827822804451
-0.14864051342010498
-0.21489891409873962
-0.2798287570476532
-0.3422880172729492
-0.4008985459804535
-0.4541439116001129
-0.5005004405975342
-0.5385595560073853
-0.5671464800834656
-0.5853970050811768
-0.5928263068199158
-0.5893460512161255
-0.5752705931663513
-0.5512749552726746
-0.5183249115943909
-0.47758880257606506
-0.4303051233291626
-0.37767133116722107
-0.3207465708255768
-0.26038703322410583
-0.19723597168922424
-0.13175907731056213
-0.06431890279054642
0.00473543256521225
0.07496752589941025
0.14576897025108337
0.21629542112350464
0.2854282557964325
0.3517679274082184
0.41367170214653015
0.4693334400653839
0.5169092416763306
0.5546813607215881
0.5812487602233887
0.5957078337669373
0.5977783799171448
0.5878502726554871
0.5669151544570923
0.5363878011703491
0.49786433577537537
0.45287322998046875
0.40269574522972107
0.34827905893325806
0.2902582883834839
0.22904983162879944
0.16496551036834717
0.09833287447690964
0.02958112210035324
-0.040695033967494965
-0.11170738190412521
-0.1824645698070526
-0.2517806887626648
-0.31831082701683044
-0.3806047737598419
-0.4371780455112457
-0.48660650849342346
-0.5276241898536682
-0.5592134594917297
-0.5806718468666077
-0.5916363596916199
-0.5920820832252502
-0.5822736024856567
-0.5627113580703735
-0.534071147441864
-0.497144490480423
-0.45279768109321594
-0.40193071961402893
-0.34545668959617615
-0.28427040576934814
-0.21923986077308655
-0.15119346976280212
-0.08093558996915817
-0.0092616006731987
0.06300318986177444
0.13495895266532898
0.2055957019329071
0.27377715706825256
0.338247150182724
0.39768120646476746
0.4507582485675812
0.49625900387763977
0.5331480503082275
0.5606533288955688
0.5783104300498962
0.5859786868095398
0.5838325619697571
0.5723357796669006
0.5522159337997437
0.5244215130805969
0.4900931417942047
0.38189759850502014
0.3378790318965912
0.29127347469329834
0.24336916208267212
0.19490596652030945
0.14612451195716858
0.0969017967581749
0.04691951721906662
-0.004160858690738678
-0.05653510242700577
-0.11014018207788467
-0.16456511616706848
-0.21902617812156677
-0.2723837196826935
-0.323215514421463
-0.36992940306663513
-0.4109066426753998
-0.44464901089668274
-0.46991828083992004
-0.48584243655204773
-0.49199357628822327
-0.4884035885334015
-0.4755474627017975
-0.45426878333091736
-0.4256661534309387
-0.39095833897590637
-0.3513365685939789
-0.30785003304481506
-0.26131561398506165
-0.21230289340019226
-0.1611555516719818
-0.10806671530008316
-0.05317319184541702
0.00333964079618454
0.06114783138036728
0.11971067637205124
0.17822802066802979
0.23561975359916687
0.2905454933643341
0.3414546549320221
0.38668981194496155
0.42462000250816345
0.45381829142570496
0.4732482135295868
0.48241743445396423
0.4814665615558624
0.47113510966300964
0.45261797308921814
0.4273240268230438
0.3966115713119507
0.3615787625312805
0.3229641318321228
0.28114813566207886
0.23626366257667542
0.18832692503929138
0.13738462328910828
0.08360923081636429
0.02736692875623703
-0.03075585514307022
-0.08995354920625687
-0.149224191904068
-0.20739826560020447
-0.2631931006908417
-0.31526532769203186
-0.36229071021080017
-0.4030391573905945
-0.43645575642585754
-0.46173009276390076
-0.4783388674259186
-0.4860628545284271
-0.4849691689014435
-0.475374311208725
-0.45779237151145935
-0.4328811466693878
-0.4013993442058563
-0.3641652762889862
-0.3220158517360687
-0.275775283575058
-0.22622153162956238
-0.1740601658821106
-0.11990842968225479
-0.06430134922266006
-0.007712282240390778
0.04939504712820053
0.10651952773332596
0.16305190324783325
0.2182297706604004
0.27111920714378357
0.32062867283821106
0.36556366086006165
0.4047172963619232
0.43696922063827515
0.4613884687423706
0.4773138463497162
0.48440057039260864
0.4826475977897644
0.47238847613334656
0.45426949858665466
0.4292130768299103
0.39836737513542175
0.2715425193309784
0.23917317390441895
0.20644453167915344
0.17392662167549133
0.14167946577072144
0.10937239974737167
0.07644578069448471
0.042274318635463715
0.006314568221569061
-0.03176695853471756
-0.07199756056070328
-0.11404231935739517
-0.15716993808746338
-0.20028388500213623
-0.24199074506759644
-0.2807140350341797
-0.3148455023765564
-0.34290701150894165
-0.3637057840824127
-0.3764600455760956
-0.3808717727661133
-0.3771362602710724
-0.36589109897613525
-0.34809979796409607
-0.32490548491477966
-0.2974633276462555
-0.2667927145957947
-0.23367580771446228
-0.19861480593681335
-0.161851167678833
-0.12343061715364456
-0.08330432325601578
-0.04143627732992172
0.0020950958132743835
0.04701358824968338
0.09279396384954453
0.13863438367843628
0.18346711993217468
0.2260008454322815
0.26480719447135925
0.29843729734420776
0.3255792558193207
0.34522745013237
0.3568437397480011
0.3604613244533539
0.35668236017227173
0.346559077501297
0.3313732147216797
0.31236425042152405
0.2904989421367645
0.26633644104003906
0.24002176523208618
0.2113841474056244
0.180099755525589
0.14585095643997192
0.10846962779760361
0.06801953166723251
0.024830959737300873
-0.02050206810235977
-0.06715217977762222
-0.11410496383905411
-0.16021737456321716
-0.20428088307380676
-0.2450924813747406
-0.28152939677238464
-0.312615305185318
-0.3375795781612396
-0.35589152574539185
-0.36727312207221985
-0.3716849982738495
-0.3692941963672638
-0.3604370653629303
-0.3455831706523895
-0.3253038823604584
-0.3002507984638214
-0.27112022042274475
-0.2386302649974823
-0.20347493886947632
-0.1662869155406952
-0.12760525941848755
-0.08784987777471542
-0.04732132703065872
-0.006225951015949249
0.03528166562318802
0.07703181356191635
0.11877193301916122
0.1600916087627411
0.2003897726535797
0.23884958028793335
0.27447783946990967
0.3061734735965729
0.33282408118247986
0.35342416167259216
0.3671742379665375
0.3735656142234802
0.3724323809146881
0.36396652460098267
0.34870657324790955
0.3275010883808136
0.3014563322067261
0.16105115413665771
0.1413525640964508
0.12296038120985031
0.10577913373708725
0.08931782096624374
0.07283984869718552
0.05551277846097946
0.0365457758307457
0.015300624072551727
-0.008614160120487213
-0.03527415543794632
-0.06439734250307083
-0.0953243151307106
-0.1270449459552765
-0.1582661271095276
-0.18752434849739075
-0.21334058046340942
-0.23437753319740295
-0.24961122870445251
-0.25845181941986084
-0.2607992887496948
-0.2570326328277588
-0.24792078137397766
-0.23446998000144958
-0.21774908900260925
-0.1987203061580658
-0.17811304330825806
-0.1563614010810852
-0.13360339403152466
-0.10974694043397903
-0.08456530421972275
-0.05781305581331253
-0.02933333069086075
0.0008479580283164978
0.03246205300092697
0.06495881825685501
0.09751579910516739
0.1290709674358368
0.15840446949005127
0.18425026535987854
0.20544439554214478
0.22108572721481323
0.23069524765014648
0.2343215048313141
0.23255369067192078
0.2264271378517151
0.21720486879348755
0.206114262342453
0.19408917427062988
0.18160772323608398
0.1686595380306244
0.15483048558235168
0.13946810364723206
0.12187128514051437
0.10146256536245346
0.07790955156087875
0.05118837207555771
0.021597526967525482
-0.010272182524204254
-0.04359158128499985
-0.07736498862504959
-0.11050362139940262
-0.14191070199012756
-0.17056149244308472
-0.1955735683441162
-0.2162725329399109
-0.23221126198768616
-0.2431829273700714
-0.24918469786643982
-0.25037357211112976
-0.24701377749443054
-0.2394380271434784
-0.2280280888080597
-0.21321138739585876
-0.19546374678611755
-0.17530202865600586
-0.15326133370399475
-0.1298641860485077
-0.10557303577661514
-0.08075139671564102
-0.05563542991876602
-0.03032837063074112
-0.0048187002539634705
0.02097918838262558
0.04716188460588455
0.07376676052808762
0.1006963923573494
0.1276623010635376
0.15414834022521973
0.17941805720329285
0.20256230235099792
0.22258374094963074
0.23850086331367493
0.2494696080684662
0.25488078594207764
0.2544386386871338
0.248195081949234
0.2365577518939972
0.22025451064109802
0.2002846598625183
0.05255960673093796
0.04580237716436386
0.04151584953069687
0.039064906537532806
0.03756316751241684
0.036020033061504364
0.033462993800640106
0.02903532236814499
0.02208297699689865
0.01220550388097763
-0.0006934180855751038
-0.016379214823246002
-0.03428087383508682
-0.05352247506380081
-0.07298318296670914
-0.0914117768406868
-0.10757250338792801
-0.12040383368730545
-0.12916603684425354
-0.13354846835136414
-0.13369795680046082
-0.13016685843467712
-0.12378863245248795
-0.11550504714250565
-0.10618750005960464
-0.09649065881967545
-0.08676730841398239
-0.07705312222242355
-0.06712082773447037
-0.05656639486551285
-0.04493448883295059
-0.03183094412088394
-0.017023630440235138
-0.0005222037434577942
0.01738206297159195
0.03610711544752121
0.05481188744306564
0.07246851176023483
0.08797159045934677
0.10028614848852158
0.10861127823591232
0.11254117637872696
0.11217910796403885
0.10816731303930283
0.10160458832979202
0.09384065121412277
0.08620492368936539
0.07973112910985947
0.07495998591184616
0.07186821848154068
0.06992591172456741
0.06825750321149826
0.06583572179079056
0.06168612092733383
0.055039502680301666
0.04543893784284592
0.03278481215238571
0.01732625812292099
-0.0003829076886177063
-0.019557945430278778
-0.03927145153284073
-0.05854657292366028
-0.07645630091428757
-0.09220226854085922
-0.10519067198038101
-0.11506766825914383
-0.12173201888799667
-0.1252918541431427
-0.1260109543800354
-0.12422388046979904
-0.12027914077043533
-0.11448899656534195
-0.1071278527379036
-0.09844600409269333
-0.08870213478803635
-0.07818020135164261
-0.06718864291906357
-0.056031860411167145
-0.044973455369472504
-0.03419113904237747
-0.02374900132417679
-0.0135817751288414
-0.003507860004901886
0.006735853850841522
0.017444275319576263
0.028877295553684235
0.04119328409433365
0.054383061826229095
0.06822856515645981
0.08228565007448196
0.09590793401002884
0.10830587893724442
0.11863728612661362
0.12611794471740723
0.13012543320655823
0.1302882730960846
0.12654316425323486
0.1191490963101387
0.10866951197385788
0.09592468291521072
-0.05245358496904373
-0.046665169298648834
-0.03761149197816849
-0.02631450444459915
-0.01391080766916275
-0.0015226379036903381
0.009829513728618622
0.019296936690807343
0.026247315108776093
0.030298493802547455
0.031346194446086884
0.029569171369075775
0.02542468160390854
0.019609235227108
0.012996844947338104
0.006528221070766449
0.0010814294219017029
-0.0026683881878852844
-0.004364050924777985
-0.004034645855426788
-0.0020763948559761047
0.000833950936794281
0.003889016807079315
0.00632699579000473
0.007581524550914764
0.0073836371302604675
0.005796350538730621
0.0031776800751686096
9.64924693107605e-05
-0.002782203257083893
-0.004822947084903717
-0.005526013672351837
-0.004619486629962921
-0.0021136775612831116
0.0016745850443840027
0.006144769489765167
0.010474495589733124
0.01372305303812027
0.014974884688854218
0.013511084020137787
0.008974425494670868
0.0015013143420219421
-0.008224062621593475
-0.019036732614040375
-0.029473595321178436
-0.03804025799036026
-0.043508075177669525
-0.045139096677303314
-0.04280834645032883
-0.0369810089468956
-0.028591714799404144
-0.018842287361621857
-0.009000875055789948
-0.00021643191576004028
0.006620980799198151
0.010961361229419708
0.012624822556972504
0.01178383082151413
0.008905448019504547
0.0046660080552101135
-0.00014819949865341187
-0.004750467836856842
-0.008451513946056366
-0.01074519008398056
-0.01136382669210434
-0.010293610394001007
-0.007750578224658966
-0.004123561084270477
0.00011756271123886108
0.004501156508922577
0.00862913578748703
0.01221805065870285
0.01509898155927658
0.017198793590068817
0.018486283719539642
0.01893683522939682
0.018507681787014008
0.017149828374385834
0.014828197658061981
0.011563368141651154
0.007463417947292328
0.0027379319071769714
-0.0023004338145256042
-0.0072611793875694275
-0.011714525520801544
-0.015239112079143524
-0.017481006681919098
-0.018214471638202667
-0.017380766570568085
-0.015121228992938995
-0.01177523285150528
-0.007845677435398102
-0.003935672342777252
-0.0006628111004829407
0.001435495913028717
0.001987554132938385
0.0008490011096000671
-0.001870580017566681
-0.005807183682918549
-0.010385803878307343
-0.1530558168888092
-0.13562849164009094
-0.11436320096254349
-0.09052122384309769
-0.06536541134119034
-0.04006246477365494
-0.015618927776813507
0.007154844701290131
0.027670972049236298
0.045571647584438324
0.06073492020368576
0.07326575368642807
0.08346959203481674
0.09181230515241623
0.09884538501501083
0.10510876029729843
0.11102645844221115
0.11680438369512558
0.12236019223928452
0.12732219696044922
0.13108289241790771
0.13292893767356873
0.13218346238136292
0.12836158275604248
0.12126880139112473
0.11104940623044968
0.09816496819257736
0.08332382887601852
0.0673760399222374
0.05118747800588608
0.035525016486644745
0.020958565175533295
0.00778602808713913
-0.004005201160907745
-0.014733009040355682
-0.02497180551290512
-0.035462938249111176
-0.0469743087887764
-0.06013721972703934
-0.07526390999555588
-0.0922093465924263
-0.11028922349214554
-0.12831345200538635
-0.1447482407093048
-0.15795856714248657
-0.1665075719356537
-0.16940629482269287
-0.16626891493797302
-0.15734469890594482
-0.14343425631523132
-0.12572148442268372
-0.10558293014764786
-0.08439701050519943
-0.06338556855916977
-0.043502382934093475
-0.025366611778736115
-0.00924680382013321
0.004913248121738434
0.01743593066930771
0.028812088072299957
0.039599500596523285
0.050310783088207245
0.061314620077610016
0.07276567071676254
0.08457549661397934
0.09642898291349411
0.10783059149980545
0.11819026619195938
0.12690305709838867
0.13343381881713867
0.13737282156944275
0.13847088813781738
0.13665059208869934
0.13198411464691162
0.12464993447065353
0.11488009244203568
0.10291873663663864
0.08899425715208054
0.07333094626665115
0.05616792291402817
0.03778605908155441
0.018530957400798798
-0.0011809542775154114
-0.0208699032664299
-0.04001668840646744
-0.05809197574853897