# vtk DataFile Version 3.0
2D PINN Solution
ASCII
DATASET STRUCTURED_GRID
DIMENSIONS 100 100 1
POINTS 10000 float
-1.0 -1.0 0.0
-0.9797979797979798 -1.0 0.0
-0.9595959595959596 -1.0 0.0
-0.9393939393939394 -1.0 0.0
-0.9191919191919192 -1.0 0.0
-0.898989898989899 -1.0 0.0
-0.8787878787878788 -1.0 0.0
-0.8585858585858586 -1.0 0.0
-0.8383838383838383 -1.0 0.0
-0.8181818181818181 -1.0 0.0
-0.797979797979798 -1.0 0.0
-0.7777777777777778 -1.0 0.0
-0.7575757575757576 -1.0 0.0
-0.7373737373737373 -1.0 0.0
-0.7171717171717171 -1.0 0.0
-0.696969696969697 -1.0 0.0
-0.6767676767676767 -1.0 0.0
-0.6565656565656566 -1.0 0.0
-0.6363636363636364 -1.0 0.0
-0.6161616161616161 -1.0 0.0
-0.5959595959595959 -1.0 0.0
-0.5757575757575757 -1.0 0.0
-0.5555555555555556 -1.0 0.0
-0.5353535353535352 -1.0 0.0
-0.5151515151515151 -1.0 0.0
-0.4949494949494949 -1.0 0.0
-0.4747474747474747 -1.0 0.0
-0.4545454545454545 -1.0 0.0
-0.43434343434343425 -1.0 0.0
-0.41414141414141414 -1.0 0.0
-0.3939393939393939 -1.0 0.0
-0.3737373737373737 -1.0 0.0
-0.3535353535353535 -1.0 0.0
-0.33333333333333326 -1.0 0.0
-0.31313131313131304 -1.0 0.0
-0.2929292929292928 -1.0 0.0
-0.2727272727272727 -1.0 0.0
-0.2525252525252525 -1.0 0.0
-0.23232323232323226 -1.0 0.0
-0.21212121212121204 -1.0 0.0
-0.19191919191919182 -1.0 0.0
-0.1717171717171716 -1.0 0.0
-0.1515151515151515 -1.0 0.0
-0.13131313131313127 -1.0 0.0
-0.11111111111111105 -1.0 0.0
-0.09090909090909083 -1.0 0.0
-0.07070707070707061 -1.0 0.0
-0.050505050505050386 -1.0 0.0
-0.030303030303030276 -1.0 0.0
-0.010101010101010055 -1.0 0.0
0.010101010101010166 -1.0 0.0
0.030303030303030498 -1.0 0.0
0.05050505050505061 -1.0 0.0
0.07070707070707072 -1.0 0.0
0.09090909090909105 -1.0 0.0
0.11111111111111116 -1.0 0.0
0.1313131313131315 -1.0 0.0
0.1515151515151516 -1.0 0.0
0.1717171717171717 -1.0 0.0
0.19191919191919204 -1.0 0.0
0.21212121212121215 -1.0 0.0
0.2323232323232325 -1.0 0.0
0.2525252525252526 -1.0 0.0
0.27272727272727293 -1.0 0.0
0.29292929292929304 -1.0 0.0
0.31313131313131315 -1.0 0.0
0.3333333333333335 -1.0 0.0
0.3535353535353536 -1.0 0.0
0.3737373737373739 -1.0 0.0
0.39393939393939403 -1.0 0.0
0.41414141414141437 -1.0 0.0
0.4343434343434345 -1.0 0.0
0.4545454545454546 -1.0 0.0
0.4747474747474749 -1.0 0.0
0.49494949494949503 -1.0 0.0
0.5151515151515154 -1.0 0.0
0.5353535353535355 -1.0 0.0
0.5555555555555556 -1.0 0.0
0.5757575757575759 -1.0 0.0
0.595959595959596 -1.0 0.0
0.6161616161616164 -1.0 0.0
0.6363636363636365 -1.0 0.0
0.6565656565656568 -1.0 0.0
0.6767676767676769 -1.0 0.0
0.696969696969697 -1.0 0.0
0.7171717171717173 -1.0 0.0
0.7373737373737375 -1.0 0.0
0.7575757575757578 -1.0 0.0
0.7777777777777779 -1.0 0.0
0.7979797979797982 -1.0 0.0
0.8181818181818183 -1.0 0.0
0.8383838383838385 -1.0 0.0
0.8585858585858588 -1.0 0.0
0.8787878787878789 -1.0 0.0
0.8989898989898992 -1.0 0.0
0.9191919191919193 -1.0 0.0
0.9393939393939394 -1.0 0.0
0.9595959595959598 -1.0 0.0
0.9797979797979799 -1.0 0.0
1.0 -1.0 0.0
-1.0 -0.9797979797979798 0.0
-0.9797979797979798 -0.9797979797979798 0.0
-0.9595959595959596 -0.9797979797979798 0.0
-0.9393939393939394 -0.9797979797979798 0.0
-0.9191919191919192 -0.9797979797979798 0.0
-0.898989898989899 -0.9797979797979798 0.0
-0.8787878787878788 -0.9797979797979798 0.0
-0.8585858585858586 -0.9797979797979798 0.0
-0.8383838383838383 -0.9797979797979798 0.0
-0.8181818181818181 -0.9797979797979798 0.0
-0.797979797979798 -0.9797979797979798 0.0
-0.7777777777777778 -0.9797979797979798 0.0
-0.7575757575757576 -0.9797979797979798 0.0
-0.7373737373737373 -0.9797979797979798 0.0
-0.7171717171717171 -0.9797979797979798 0.0
-0.696969696969697 -0.9797979797979798 0.0
-0.6767676767676767 -0.9797979797979798 0.0
-0.6565656565656566 -0.9797979797979798 0.0
-0.6363636363636364 -0.9797979797979798 0.0
-0.6161616161616161 -0.9797979797979798 0.0
-0.5959595959595959 -0.9797979797979798 0.0
-0.5757575757575757 -0.9797979797979798 0.0
-0.5555555555555556 -0.9797979797979798 0.0
-0.5353535353535352 -0.9797979797979798 0.0
-0.5151515151515151 -0.9797979797979798 0.0
-0.4949494949494949 -0.9797979797979798 0.0
-0.4747474747474747 -0.9797979797979798 0.0
-0.4545454545454545 -0.9797979797979798 0.0
-0.43434343434343425 -0.9797979797979798 0.0
-0.41414141414141414 -0.9797979797979798 0.0
-0.3939393939393939 -0.9797979797979798 0.0
-0.3737373737373737 -0.9797979797979798 0.0
-0.3535353535353535 -0.9797979797979798 0.0
-0.33333333333333326 -0.9797979797979798 0.0
-0.31313131313131304 -0.9797979797979798 0.0
-0.2929292929292928 -0.9797979797979798 0.0
-0.2727272727272727 -0.9797979797979798 0.0
-0.2525252525252525 -0.9797979797979798 0.0
-0.23232323232323226 -0.9797979797979798 0.0
-0.21212121212121204 -0.9797979797979798 0.0
-0.19191919191919182 -0.9797979797979798 0.0
-0.1717171717171716 -0.9797979797979798 0.0
-0.1515151515151515 -0.9797979797979798 0.0
-0.13131313131313127 -0.9797979797979798 0.0
-0.11111111111111105 -0.9797979797979798 0.0
-0.09090909090909083 -0.9797979797979798 0.0
-0.07070707070707061 -0.9797979797979798 0.0
-0.050505050505050386 -0.9797979797979798 0.0
-0.030303030303030276 -0.9797979797979798 0.0
-0.010101010101010055 -0.9797979797979798 0.0
0.010101010101010166 -0.9797979797979798 0.0
0.030303030303030498 -0.9797979797979798 0.0
0.05050505050505061 -0.9797979797979798 0.0
0.07070707070707072 -0.9797979797979798 0.0
0.09090909090909105 -0.9797979797979798 0.0
0.11111111111111116 -0.9797979797979798 0.0
0.1313131313131315 -0.9797979797979798 0.0
0.1515151515151516 -0.9797979797979798 0.0
0.1717171717171717 -0.9797979797979798 0.0
0.19191919191919204 -0.9797979797979798 0.0
0.21212121212121215 -0.9797979797979798 0.0
0.2323232323232325 -0.9797979797979798 0.0
0.2525252525252526 -0.9797979797979798 0.0
0.27272727272727293 -0.9797979797979798 0.0
0.29292929292929304 -0.9797979797979798 0.0
0.31313131313131315 -0.9797979797979798 0.0
0.3333333333333335 -0.9797979797979798 0.0
0.3535353535353536 -0.9797979797979798 0.0
0.3737373737373739 -0.9797979797979798 0.0
0.39393939393939403 -0.9797979797979798 0.0
0.41414141414141437 -0.9797979797979798 0.0
0.4343434343434345 -0.9797979797979798 0.0
0.4545454545454546 -0.9797979797979798 0.0
0.4747474747474749 -0.9797979797979798 0.0
0.49494949494949503 -0.9797979797979798 0.0
0.5151515151515154 -0.9797979797979798 0.0
0.5353535353535355 -0.9797979797979798 0.0
0.5555555555555556 -0.9797979797979798 0.0
0.5757575757575759 -0.9797979797979798 0.0
0.595959595959596 -0.9797979797979798 0.0
0.6161616161616164 -0.9797979797979798 0.0
0.6363636363636365 -0.9797979797979798 0.0
0.6565656565656568 -0.9797979797979798 0.0
0.6767676767676769 -0.9797979797979798 0.0
0.696969696969697 -0.9797979797979798 0.0
0.7171717171717173 -0.9797979797979798 0.0
0.7373737373737375 -0.9797979797979798 0.0
0.7575757575757578 -0.9797979797979798 0.0
0.7777777777777779 -0.9797979797979798 0.0
0.7979797979797982 -0.9797979797979798 0.0
0.8181818181818183 -0.9797979797979798 0.0
0.8383838383838385 -0.9797979797979798 0.0
0.8585858585858588 -0.9797979797979798 0.0
0.8787878787878789 -0.9797979797979798 0.0
0.8989898989898992 -0.9797979797979798 0.0
0.9191919191919193 -0.9797979797979798 0.0
0.9393939393939394 -0.9797979797979798 0.0
0.9595959595959598 -0.9797979797979798 0.0
0.9797979797979799 -0.9797979797979798 0.0
1.0 -0.9797979797979798 0.0
-1.0 -0.9595959595959596 0.0
-0.9797979797979798 -0.9595959595959596 0.0
-0.9595959595959596 -0.9595959595959596 0.0
-0.9393939393939394 -0.9595959595959596 0.0
-0.9191919191919192 -0.9595959595959596 0.0
-0.898989898989899 -0.9595959595959596 0.0
-0.8787878787878788 -0.9595959595959596 0.0
-0.8585858585858586 -0.9595959595959596 0.0
-0.8383838383838383 -0.9595959595959596 0.0
-0.8181818181818181 -0.9595959595959596 0.0
-0.797979797979798 -0.9595959595959596 0.0
-0.7777777777777778 -0.9595959595959596 0.0
-0.7575757575757576 -0.9595959595959596 0.0
-0.7373737373737373 -0.9595959595959596 0.0
-0.7171717171717171 -0.9595959595959596 0.0
-0.696969696969697 -0.9595959595959596 0.0
-0.6767676767676767 -0.9595959595959596 0.0
-0.6565656565656566 -0.9595959595959596 0.0
-0.6363636363636364 -0.9595959595959596 0.0
-0.6161616161616161 -0.9595959595959596 0.0
-0.5959595959595959 -0.9595959595959596 0.0
-0.5757575757575757 -0.9595959595959596 0.0
-0.5555555555555556 -0.9595959595959596 0.0
-0.5353535353535352 -0.9595959595959596 0.0
-0.5151515151515151 -0.9595959595959596 0.0
-0.4949494949494949 -0.9595959595959596 0.0
-0.4747474747474747 -0.9595959595959596 0.0
-0.4545454545454545 -0.9595959595959596 0.0
-0.43434343434343425 -0.9595959595959596 0.0
-0.41414141414141414 -0.9595959595959596 0.0
-0.3939393939393939 -0.9595959595959596 0.0
-0.3737373737373737 -0.9595959595959596 0.0
-0.3535353535353535 -0.9595959595959596 0.0
-0.33333333333333326 -0.9595959595959596 0.0
-0.31313131313131304 -0.9595959595959596 0.0
-0.2929292929292928 -0.9595959595959596 0.0
-0.2727272727272727 -0.9595959595959596 0.0
-0.2525252525252525 -0.9595959595959596 0.0
-0.23232323232323226 -0.9595959595959596 0.0
-0.21212121212121204 -0.9595959595959596 0.0
-0.19191919191919182 -0.9595959595959596 0.0
-0.1717171717171716 -0.9595959595959596 0.0
-0.1515151515151515 -0.9595959595959596 0.0
-0.13131313131313127 -0.9595959595959596 0.0
-0.11111111111111105 -0.9595959595959596 0.0
-0.09090909090909083 -0.9595959595959596 0.0
-0.07070707070707061 -0.9595959595959596 0.0
-0.050505050505050386 -0.9595959595959596 0.0
-0.030303030303030276 -0.9595959595959596 0.0
-0.010101010101010055 -0.9595959595959596 0.0
0.010101010101010166 -0.9595959595959596 0.0
0.030303030303030498 -0.9595959595959596 0.0
0.05050505050505061 -0.9595959595959596 0.0
0.07070707070707072 -0.9595959595959596 0.0
0.09090909090909105 -0.9595959595959596 0.0
0.11111111111111116 -0.9595959595959596 0.0
0.1313131313131315 -0.9595959595959596 0.0
0.1515151515151516 -0.9595959595959596 0.0
0.1717171717171717 -0.9595959595959596 0.0
0.19191919191919204 -0.9595959595959596 0.0
0.21212121212121215 -0.9595959595959596 0.0
[...]
POINT_DATA 10000
SCALARS u float 1
LOOKUP_TABLE default
0.2124342918395996
0.1578943431377411
0.1035408303141594
0.049585871398448944
-0.004043109714984894
-0.05754620581865311
-0.11109808832406998
-0.164701908826828
-0.21807336807250977
-0.2705618441104889
-0.3211261034011841
-0.3683788478374481
-0.4106949269771576
-0.4463823139667511
-0.4738793671131134
-0.4919596016407013
-0.49989059567451477
-0.4975232779979706
-0.4852946698665619
-0.46412602066993713
-0.4352423846721649
-0.3999623954296112
-0.3595027029514313
-0.3148622214794159
-0.26679566502571106
-0.21585986018180847
-0.16250479221343994
-0.10716143995523453
-0.05030059069395065
0.007527448236942291
0.0656917467713356
0.12348037213087082
0.1801120638847351
0.23474305868148804
0.28647640347480774
0.3343767523765564
0.3774886131286621
0.4148736298084259
0.4456498622894287
0.46903958916664124
0.4844156801700592
0.49133336544036865
0.4895585775375366
0.47908124327659607
0.46011874079704285
0.4331061542034149
0.39867326617240906
0.3576204776763916
0.31086593866348267
0.25940245389938354
0.20424357056617737
0.1463831663131714
0.08676274865865707
0.026259638369083405
-0.03431091457605362
-0.09417857974767685
-0.15259656310081482
-0.2088133990764618
-0.2620527744293213
-0.3114916682243347
-0.3562527000904083
-0.3954148590564728
-0.4280572831630707
-0.45333734154701233
-0.4706026613712311
-0.4794842302799225
-0.47994938492774963
-0.4722757637500763
-0.4569893181324005
-0.4347619116306305
-0.4063243865966797
-0.3723970353603363
-0.3336388170719147
-0.29062312841415405
-0.24383115768432617
-0.1936565339565277
-0.14043569564819336
-0.08449194580316544
-0.026196040213108063
0.03396155685186386
0.09529688209295273
0.1568845808506012
0.21752917766571045
0.2757933735847473
0.33006760478019714
0.37868937849998474
0.42007726430892944
0.4528774917125702
0.47609803080558777
0.48918983340263367
0.4921071231365204
0.4853055775165558
0.46971040964126587
0.44665423035621643
0.4177846312522888
0.3849722146987915
0.3502087891101837
0.31550025939941406
0.2827773690223694
0.253811776638031
0.1603979468345642
0.11977847665548325
0.07935430854558945
0.039152733981609344
-0.0009709969162940979
-0.04122594743967056
-0.08177424222230911
-0.1226293221116066
-0.16356638073921204
-0.2040582001209259
-0.24325260519981384
-0.2800022065639496
-0.3129599988460541
-0.3407261073589325
-0.3620317578315735
-0.37591710686683655
-0.3818642199039459
-0.3798489272594452
-0.3703080415725708
-0.3540234863758087
-0.33195826411247253
-0.30509600043296814
-0.274315744638443
-0.24033889174461365
-0.203736811876297
-0.16497394442558289
-0.12445919960737228
-0.0825851783156395
-0.03974869102239609
0.0036426857113838196
0.04717292636632919
0.09040924161672592
0.13289514183998108
0.17412924766540527
0.21354979276657104
0.25051620602607727
0.2843140661716461
0.31416764855384827
0.33928343653678894
0.3588967025279999
0.3723314702510834
0.37905752658843994
0.3787301182746887
0.371226042509079
0.3566513955593109
0.3353481590747833
0.30787402391433716
0.2749716639518738
0.2375233769416809
0.19649475812911987
0.15286561846733093
0.10757098346948624
0.06145424395799637
0.015238426625728607
-0.0304759219288826
-0.07519622892141342
-0.11849550157785416
-0.15998193621635437
-0.19925111532211304
-0.23585429787635803
-0.2692711055278778
-0.29889121651649475
-0.32402393221855164
-0.34394362568855286
-0.35797569155693054
-0.365613728761673
-0.3666151463985443
-0.3610498011112213
-0.3492763340473175
-0.3318692743778229
-0.3095264136791229
-0.2829689681529999
-0.25287479162216187
-0.2198251187801361
-0.18427392840385437
-0.14654144644737244
-0.10682929307222366
-0.06526210159063339
-0.021943964064121246
0.022957049310207367
0.06913154572248459
0.11604305356740952
0.16288703680038452
0.20857283473014832
0.25177299976348877
0.29100853204727173
0.32478299736976624
0.3517305552959442
0.37077057361602783
0.3812245726585388
0.3828947842121124
0.37609508633613586
0.36163073778152466
0.34074345231056213
0.3150096833705902
0.28625252842903137
0.2564118206501007
0.2274455428123474
0.2012212872505188
0.17942073941230774
0.10747801512479782
0.08104401081800461
0.054619453847408295
0.028145693242549896
0.001502595841884613
-0.025434203445911407
-0.05273611098527908
-0.0803612545132637
-0.10811106115579605
-0.1355808973312378
-0.16215720772743225
-0.18703684210777283
-0.2092960774898529
-0.228002667427063
-0.24234157800674438
-0.2517260015010834
-0.2558755874633789
-0.25481778383255005
-0.2488456666469574
-0.23842617869377136
-0.2241063117980957
-0.20643404126167297
-0.1859177052974701
-0.16302195191383362
-0.13818752765655518
-0.11184263974428177
-0.08441063016653061
-0.05628371983766556
-0.027808301150798798
0.0007370933890342712
0.029140718281269073
0.05724502354860306
0.08491095155477524
0.1119784489274025
0.13822603225708008
0.16333207488059998
0.18685466051101685
0.20823419094085693
0.22681906819343567
0.24191507697105408
0.25285109877586365
0.2590479552745819
0.2600775361061096
0.2557125985622406
0.24594810605049133
0.2310134470462799
0.21135175228118896
0.1875978410243988
0.16053014993667603
0.13101276755332947
0.09992467612028122
0.06809508055448532
0.03624037653207779
0.004926450550556183
-0.0254465714097023
-0.054627008736133575
-0.08247406035661697
-0.10890691727399826
-0.13385269045829773
-0.15719828009605408
-0.17875218391418457
-0.19821491837501526
-0.21516606211662292
-0.2290700376033783
-0.23933497071266174
-0.24540403485298157
-0.24687767028808594
-0.2436099350452423
-0.23574844002723694
-0.2237025797367096
-0.20806553959846497
-0.18950757384300232
-0.16868168115615845
-0.14614862203598022
-0.12232168763875961
-0.09744978696107864
-0.07161996513605118
-0.04478759318590164
-0.016840733587741852
0.012327484786510468
0.042724527418613434
0.0741797611117363
0.1062663272023201
0.13827529549598694
0.16921916604042053
0.19789505004882812
0.22299650311470032
0.24324938654899597
0.2575705051422119
0.26519617438316345
0.2657991647720337
0.25953409075737
0.24704059958457947
0.22940635681152344
0.2080695629119873
0.18472805619239807
0.16120591759681702
0.13934308290481567
0.12088606506586075
0.1073898896574974
0.05394955724477768
0.041744671761989594
0.029274992644786835
0.016461066901683807
0.003268800675868988
-0.010288573801517487
-0.024141825735569
-0.03816203027963638
-0.05215046554803848
-0.06583810597658157
-0.07888586074113846
-0.09091378003358841
-0.1015409603714943
-0.11043114215135574
-0.11732954531908035
-0.12208815664052963
-0.12464489787817001
-0.1250002086162567
-0.12317963689565659
-0.119221992790699
-0.11317514628171921
-0.10512015968561172
-0.0952032133936882
-0.08366090804338455
-0.07082892209291458
-0.057122357189655304
-0.042980343103408813
-0.028804369270801544
-0.014893002808094025
-0.0014063045382499695
0.01163310557603836
0.024318091571331024
0.036805085837841034
0.04925452917814255
0.061770908534526825
0.07435228675603867
0.08685130625963211
0.09896352142095566
0.11023653298616409
0.12010978907346725
0.127976655960083
0.13325941562652588
0.13547992706298828
0.13432404398918152
0.1296747922897339
0.12162864953279495
0.11048761755228043
0.09672931581735611
0.08096759766340256
0.06389526277780533
0.04622360318899155
0.028615586459636688
0.011624537408351898
-0.004352115094661713
-0.019098959863185883
-0.03257591277360916
-0.04487971216440201
-0.05619698017835617
-0.06673940271139145
-0.07668689638376236
-0.08614366501569748
-0.09509941190481186
-0.10340739041566849
-0.11076941341161728
-0.11675476282835007
-0.12085822969675064
-0.12260692566633224
-0.12167636305093765
-0.1179889366030693
-0.11173462122678757
-0.10333175212144852
-0.09332912415266037
-0.08230026811361313
-0.07074403017759323
-0.0590149387717247
-0.047282539308071136
-0.03552844375371933
-0.023574523627758026
-0.011133752763271332
0.0021195635199546814
0.01646006852388382
0.032029010355472565
0.048755742609500885
0.06630956381559372
0.08408442884683609
0.10122387856245041
0.116704560816288
0.12944704294204712
0.13845643401145935
0.1429620385169983
0.14254412055015564
0.13719654083251953
0.12737062573432922
0.11394176632165909
0.09814020246267319
0.08146023005247116
0.06553519517183304
0.05201958864927292
0.04248126596212387
0.03829587250947952
-3.654509782791138e-05
0.001879088580608368
0.0032654032111167908
0.004057399928569794
0.004325591027736664
0.0042381808161735535
0.004013232886791229
0.003874056041240692
0.004012338817119598
0.004552654922008514
0.005521766841411591
0.006822995841503143
0.008238159120082855
0.00945078581571579
0.010116778314113617
0.00995742529630661
0.008854277431964874
0.006901733577251434
0.004394941031932831
0.0017562434077262878
-0.0005689039826393127
-0.002225063741207123
-0.0030251815915107727
-0.0029957368969917297
-0.0023646280169487
-0.0015057101845741272
-0.0008471235632896423
-0.0007660612463951111
-0.0015012100338935852
-0.0031040236353874207
-0.0054300203919410706
-0.008169956505298615
-0.010911829769611359
-0.013210035860538483
-0.014662675559520721
-0.014965720474720001
-0.0139688178896904
-0.011696554720401764
-0.008355773985385895
-0.004313312470912933
-4.573911428451538e-05
0.003927774727344513
0.007120512425899506
0.009150587022304535
0.009788699448108673
0.008987076580524445
0.006873480975627899
0.003733418881893158
-3.298372030258179e-05
-0.003957800567150116
-0.007555313408374786
-0.010381646454334259
-0.01208765059709549
-0.012465007603168488
-0.011477820575237274
-0.009268321096897125
-0.006134547293186188
-0.0024836882948875427
0.0012327805161476135
0.004583917558193207
0.007206417620182037
0.008848629891872406
0.009401373565196991
0.008915774524211884
0.007613576948642731
0.005866773426532745
0.004128731787204742
0.0028264597058296204
0.0022410526871681213
0.0024281516671180725
0.003205247223377228
0.004217483103275299
0.005034603178501129
0.005269132554531097
0.004657469689846039
0.003117866814136505
0.0007631704211235046
-0.00211382657289505
-0.005089707672595978
-0.007671765983104706
-0.009372033178806305
-0.009788177907466888
-0.008675210177898407
-0.006002016365528107
-0.0019877031445503235
0.0029039904475212097
0.008004628121852875
0.012519128620624542
0.015635959804058075
0.01666567474603653
0.015143223106861115
0.01093747466802597
0.004295386373996735
-0.00416179746389389
-0.013469986617565155
-0.022416003048419952
-0.02963394671678543
-0.03372400254011154
-0.03335929661989212
-0.027385585010051727
-0.05435691028833389
-0.038539715111255646
-0.023414529860019684
-0.00903484970331192
0.004760943353176117
0.01826866716146469
0.03182920068502426
0.04573335498571396
0.06013735383749008
0.07499184459447861
0.08998691290616989
0.10454007238149643
0.11783721297979355
0.12893986701965332
0.13696354627609253
0.14126378297805786
0.141600102186203
0.13818177580833435
0.13160356879234314
0.12268880754709244
0.11229122430086136
0.10113731771707535
0.08970103412866592
0.07816769927740097
0.06645304709672928
0.05428081005811691
0.04130049794912338
0.02721031755208969
0.011855252087116241
-0.004705600440502167
-0.022187940776348114
-0.04010690003633499
-0.05784056335687637
-0.07470867782831192
-0.09004492312669754
-0.10327207297086716
-0.11394981294870377
-0.12181489914655685
-0.12680095434188843
-0.12903186678886414
-0.12879720330238342
-0.12649878859519958
-0.12258531898260117
-0.11747977882623672
-0.11151675134897232
-0.10490451008081436
-0.09771271795034409
-0.08988291770219803
-0.08126183599233627
-0.07163981348276138
-0.06079385429620743
-0.04853761941194534
-0.03475821763277054
-0.019458524882793427
-0.0027916207909584045
0.014930419623851776
0.033237524330616
0.05154404789209366
0.06919842213392258
0.08555241674184799
0.10002060979604721
0.11212091892957687
0.12151124328374863
0.12801143527030945
0.1316240429878235
0.13254112005233765
0.13111773133277893
0.1277991235256195
0.12301208823919296
0.11704615503549576
0.10999085754156113
0.10174720734357834
0.09209742397069931
0.08081690222024918
0.06776758283376694
0.05297132581472397
0.036635227501392365
0.01914437860250473
0.0010288432240486145
-0.017090298235416412
-0.03456077724695206
-0.05076833814382553
-0.06519559770822525
-0.07748257368803024
-0.08746815472841263
-0.09521458297967911
-0.1009942963719368
-0.10524988919496536
-0.10851869732141495
-0.11133802682161331
-0.11413604766130447
-0.11713377386331558
-0.1202801987528801
-0.12322043627500534
-0.1253150999546051
-0.12568804621696472
-0.12331453710794449
-0.11712039262056351
-0.10607267171144485
-0.08928719907999039
-0.10882610827684402
-0.07941577583551407
-0.05068147927522659
-0.02270079404115677
0.004727445542812347
0.03197067230939865
0.05942722409963608
0.08739661425352097
0.11594881862401962
0.14482393860816956
0.17337220907211304
0.2005538046360016
0.2250363528728485
0.24537703394889832
0.2602750062942505
0.26883092522621155
0.27072587609291077
0.2662566304206848
0.2562258243560791
0.2417202889919281
0.22388121485710144
0.20370271801948547
0.18190836906433105
0.15890395641326904
0.13479939103126526
0.10949654132127762
0.08280182629823685
0.054551951587200165
0.024716340005397797
-0.006529234349727631
-0.038780055940151215
-0.07141727954149246
-0.10366130620241165
-0.1346415877342224
-0.16347703337669373
-0.18934613466262817
-0.21154576539993286
-0.22953525185585022
-0.2429657280445099
-0.2516932189464569
-0.255777508020401
-0.2554522454738617
-0.25107982754707336
-0.24308767914772034
-0.2319047749042511
-0.2179049849510193
-0.20137453079223633
-0.1825098693370819
-0.1614265739917755
-0.1381947100162506
-0.11287146061658859
-0.08553888648748398
-0.05633973330259323
-0.0255073681473732
0.006608583033084869
0.03952164202928543
0.07260691374540329
0.10512053221464157
0.13624614477157593
0.16515296697616577
0.19105887413024902
0.21328026056289673
0.23127129673957825
0.24464741349220276
0.2532061040401459
0.25695177912712097
0.2560977637767792
0.251037061214447
0.24226510524749756
0.23026177287101746
0.21538928151130676
0.19784176349639893
0.1776697039604187
0.15486496686935425
0.12945333123207092
0.1015763208270073
0.07153738290071487
0.03980272263288498
0.0069847628474235535
-0.026194490492343903
-0.0589553639292717
-0.09050814062356949
-0.12010801583528519
-0.14710381627082825
-0.17098364233970642
-0.19141680002212524
-0.20826366543769836
-0.22157934308052063
-0.23157253861427307
-0.2385537326335907
-0.24284684658050537
-0.24470600485801697
-0.24424466490745544
-0.24138104915618896
-0.2358182966709137
-0.22706946730613708
-0.21450689435005188
-0.19743472337722778
-0.17517423629760742
-0.14714205265045166
-0.1631183624267578
-0.1205131784081459
-0.07833782583475113
-0.03674880415201187
0.004414401948451996
0.04549615830183029
0.0868661031126976
0.12874272465705872
0.17104631662368774
0.21327638626098633
0.2544589936733246
0.2931821346282959
0.32773229479789734
0.35633596777915955
0.3774460256099701
0.3900197744369507
0.39368537068367004
0.388759970664978
0.3761131763458252
0.3569386303424835
0.33251288533210754
0.3040024936199188
0.27233174443244934
0.23813432455062866
0.20177066326141357
0.1633925437927246
0.12304539233446121
0.0807747170329094
0.036720894277095795
-0.008805759251117706
-0.05528984218835831
-0.10201244801282883
-0.14807692170143127
-0.1924741566181183
-0.23415181040763855
-0.2720852792263031
-0.3053399622440338
-0.3331214189529419
-0.3548116981983185
-0.37000027298927307
-0.37849733233451843
-0.38033679127693176
-0.3757527768611908
-0.3651379942893982
-0.3489871919155121
-0.3278296887874603
-0.30217835307121277
-0.27249714732170105
-0.2391904890537262
-0.20261797308921814
-0.16311991214752197
-0.12104689329862595
-0.07679549604654312
-0.030829645693302155
0.016295097768306732
0.06391159445047379
0.11123941093683243
0.15739044547080994
0.2013995349407196
0.24227967858314514
0.27907541394233704
0.3109273612499237
0.3371087312698364
0.3570597171783447
0.37040406465530396
0.3769775331020355
0.3768480718135834
0.3703153729438782
0.3578774333000183
0.340141236782074
0.31770193576812744
0.2910512387752533
0.2605411410331726
0.2264203429222107
0.18891221284866333
0.14829972386360168
0.10498646646738052
0.05951607972383499
0.012574173510074615
-0.035037167370319366
-0.08243202418088913
-0.12867525219917297
-0.17282921075820923
-0.21398437023162842
-0.25131863355636597
-0.28413406014442444
-0.31189805269241333
-0.3342715799808502
-0.3511073887348175
-0.3624408543109894
-0.36843642592430115
-0.36932680010795593
-0.3653435707092285
-0.35665106773376465
-0.34329953789711
-0.3252100348472595
-0.30218687653541565
-0.27395811676979065
-0.24023261666297913
-0.20076721906661987
-0.21671277284622192
-0.16142520308494568
-0.10605422407388687
-0.0509151890873909
0.004012696444988251
0.05893655866384506
0.11407791823148727
0.16948026418685913
0.22484609484672546
0.27942222356796265
0.33196577429771423
0.3808145821094513
0.4240536391735077
0.45977506041526794
0.4863515794277191
0.5026856660842896
0.5083526372909546
0.503601610660553
0.48923012614250183
0.46638473868370056
0.4363493025302887
0.40036246180534363
0.3595028221607208
0.31462934613227844
0.26637834310531616
0.2152121663093567
0.1614798605442047
0.10549815744161606
0.047631241381168365
-0.011647380888462067
-0.0717080608010292
-0.13174259662628174
-0.19077405333518982
-0.24769607186317444
-0.30132898688316345
-0.35048580169677734
-0.3940407931804657
-0.4309791624546051
-0.4604480564594269
-0.481791228055954
-0.4945806562900543
-0.4986399710178375
-0.494051069021225
-0.4811347424983978
-0.46041086316108704
-0.4325345456600189
-0.3982289731502533
-0.35822591185569763
-0.3132251799106598
-0.26388469338417053
-0.2108253538608551
-0.15466183423995972
-0.09602796286344528
-0.0356081947684288
0.025840334594249725
0.08747223764657974
0.14834630489349365
0.20742788910865784
0.2636152505874634
0.3157748281955719
0.36279967427253723
0.4036696255207062
0.43749991059303284
0.4635801613330841
0.4813942015171051
0.4906448423862457
0.49127599596977234
0.4834945499897003
0.46776244044303894
0.4447460174560547
0.41521403193473816
0.37991881370544434
0.3395114541053772
0.29451799392700195
0.2453881800174713
0.19256290793418884
0.13655772805213928
0.07799632102251053
0.017634399235248566
-0.043649084866046906
-0.10487369447946548
-0.16497594118118286
-0.22284051775932312
-0.2773462235927582
-0.3273905813694
-0.3719557225704193
-0.41014963388442993
-0.4412621557712555
-0.46480217576026917
-0.48050668835639954
-0.4883510172367096
-0.4884949028491974
-0.4812409579753876
-0.4669540226459503
-0.44600364565849304
-0.4187089502811432
-0.38531389832496643
-0.3459872901439667
-0.3008541166782379
-0.2500360310077667
-0.2688557505607605
-0.2015475332736969
-0.13336846232414246
-0.06487718969583511
0.003688029944896698
0.0722707137465477
0.14081957936286926
0.2091047763824463
0.27656087279319763
0.3421970307826996
0.40459299087524414
0.46198487281799316
0.5124466419219971
0.5541097521781921
0.5853953957557678
0.605208694934845
0.6130461096763611
0.609004557132721
0.5937010645866394
0.5681237578392029
0.5334644913673401
0.4909614026546478
0.4417963922023773
0.387022465467453
0.3275565207004547
0.2641855776309967
0.19760006666183472
0.12843909859657288
0.05733465403318405
-0.015036113560199738
-0.08790219575166702
-0.16036421060562134
-0.2313809096813202
-0.2997794449329376
-0.3642909824848175
-0.42361339926719666
-0.47646912932395935
-0.5216712951660156
-0.5581725239753723
-0.5851119160652161
-0.601857602596283
-0.6080422401428223
-0.6035891771316528
-0.5887210965156555
-0.5639403462409973
-0.5299795269966125
-0.4877301752567291
-0.43816444277763367
-0.38226911425590515
-0.32099828124046326
-0.2552602291107178
-0.18592500686645508
-0.11385481804609299
-0.03993573039770126
0.03489195555448532
0.10961712151765823
0.1831401288509369
0.2542843222618103
0.32180705666542053
0.3844376504421234
0.440927118062973
0.49010762572288513
0.5309529900550842
0.5626212954521179
0.5844846367835999
0.5961523652076721
0.5974835157394409
0.5886147618293762
0.5699664354324341
0.5422222018241882
0.5062534809112549
0.4630104601383209
0.4134018123149872
0.35822317004203796
0.2981566786766052
0.23382562398910522
0.16586610674858093
0.09499504417181015
0.02204389125108719
-0.0520290806889534