# vtk DataFile Version 3.0
2D PINN Solution
ASCII
DATASET STRUCTURED_GRID
DIMENSIONS 100 100 1
POINTS 10000 float
-1.0 -1.0 0.0
-0.9797979797979798 -1.0 0.0
-0.9595959595959596 -1.0 0.0
-0.9393939393939394 -1.0 0.0
-0.9191919191919192 -1.0 0.0
-0.898989898989899 -1.0 0.0
-0.8787878787878788 -1.0 0.0
-0.8585858585858586 -1.0 0.0
-0.8383838383838383 -1.0 0.0
-0.8181818181818181 -1.0 0.0
-0.797979797979798 -1.0 0.0
-0.7777777777777778 -1.0 0.0
-0.7575757575757576 -1.0 0.0
-0.7373737373737373 -1.0 0.0
-0.7171717171717171 -1.0 0.0
-0.696969696969697 -1.0 0.0
-0.6767676767676767 -1.0 0.0
-0.6565656565656566 -1.0 0.0
-0.6363636363636364 -1.0 0.0
-0.6161616161616161 -1.0 0.0
-0.5959595959595959 -1.0 0.0
-0.5757575757575757 -1.0 0.0
-0.5555555555555556 -1.0 0.0
-0.5353535353535352 -1.0 0.0
-0.5151515151515151 -1.0 0.0
-0.4949494949494949 -1.0 0.0
-0.4747474747474747 -1.0 0.0
-0.4545454545454545 -1.0 0.0
-0.43434343434343425 -1.0 0.0
-0.41414141414141414 -1.0 0.0
-0.3939393939393939 -1.0 0.0
-0.3737373737373737 -1.0 0.0
-0.3535353535353535 -1.0 0.0
-0.33333333333333326 -1.0 0.0
-0.31313131313131304 -1.0 0.0
-0.2929292929292928 -1.0 0.0
-0.2727272727272727 -1.0 0.0
-0.2525252525252525 -1.0 0.0
-0.23232323232323226 -1.0 0.0
-0.21212121212121204 -1.0 0.0
-0.19191919191919182 -1.0 0.0
-0.1717171717171716 -1.0 0.0
-0.1515151515151515 -1.0 0.0
-0.13131313131313127 -1.0 0.0
-0.11111111111111105 -1.0 0.0
-0.09090909090909083 -1.0 0.0
-0.07070707070707061 -1.0 0.0
-0.050505050505050386 -1.0 0.0
-0.030303030303030276 -1.0 0.0
-0.010101010101010055 -1.0 0.0
0.010101010101010166 -1.0 0.0
0.030303030303030498 -1.0 0.0
0.05050505050505061 -1.0 0.0
0.07070707070707072 -1.0 0.0
0.09090909090909105 -1.0 0.0
0.11111111111111116 -1.0 0.0
0.1313131313131315 -1.0 0.0
0.1515151515151516 -1.0 0.0
0.1717171717171717 -1.0 0.0
0.19191919191919204 -1.0 0.0
0.21212121212121215 -1.0 0.0
0.2323232323232325 -1.0 0.0
0.2525252525252526 -1.0 0.0
0.27272727272727293 -1.0 0.0
0.29292929292929304 -1.0 0.0
0.31313131313131315 -1.0 0.0
0.3333333333333335 -1.0 0.0
0.3535353535353536 -1.0 0.0
0.3737373737373739 -1.0 0.0
0.39393939393939403 -1.0 0.0
0.41414141414141437 -1.0 0.0
0.4343434343434345 -1.0 0.0
0.4545454545454546 -1.0 0.0
0.4747474747474749 -1.0 0.0
0.49494949494949503 -1.0 0.0
0.5151515151515154 -1.0 0.0
0.5353535353535355 -1.0 0.0
0.5555555555555556 -1.0 0.0
0.5757575757575759 -1.0 0.0
0.595959595959596 -1.0 0.0
0.6161616161616164 -1.0 0.0
0.6363636363636365 -1.0 0.0
0.6565656565656568 -1.0 0.0
0.6767676767676769 -1.0 0.0
0.696969696969697 -1.0 0.0
0.7171717171717173 -1.0 0.0
0.7373737373737375 -1.0 0.0
0.7575757575757578 -1.0 0.0
0.7777777777777779 -1.0 0.0
0.7979797979797982 -1.0 0.0
0.8181818181818183 -1.0 0.0
0.8383838383838385 -1.0 0.0
0.8585858585858588 -1.0 0.0
0.8787878787878789 -1.0 0.0
0.8989898989898992 -1.0 0.0
0.9191919191919193 -1.0 0.0
0.9393939393939394 -1.0 0.0
0.9595959595959598 -1.0 0.0
0.9797979797979799 -1.0 0.0
1.0 -1.0 0.0
-1.0 -0.9797979797979798 0.0
-0.9797979797979798 -0.9797979797979798 0.0
-0.9595959595959596 -0.9797979797979798 0.0
-0.9393939393939394 -0.9797979797979798 0.0
-0.9191919191919192 -0.9797979797979798 0.0
-0.898989898989899 -0.9797979797979798 0.0
-0.8787878787878788 -0.9797979797979798 0.0
-0.8585858585858586 -0.9797979797979798 0.0
-0.8383838383838383 -0.9797979797979798 0.0
-0.8181818181818181 -0.9797979797979798 0.0
-0.797979797979798 -0.9797979797979798 0.0
-0.7777777777777778 -0.9797979797979798 0.0
-0.7575757575757576 -0.9797979797979798 0.0
-0.7373737373737373 -0.9797979797979798 0.0
-0.7171717171717171 -0.9797979797979798 0.0
-0.696969696969697 -0.9797979797979798 0.0
-0.6767676767676767 -0.9797979797979798 0.0
-0.6565656565656566 -0.9797979797979798 0.0
-0.6363636363636364 -0.9797979797979798 0.0
-0.6161616161616161 -0.9797979797979798 0.0
-0.5959595959595959 -0.9797979797979798 0.0
-0.5757575757575757 -0.9797979797979798 0.0
-0.5555555555555556 -0.9797979797979798 0.0
-0.5353535353535352 -0.9797979797979798 0.0
-0.5151515151515151 -0.9797979797979798 0.0
-0.4949494949494949 -0.9797979797979798 0.0
-0.4747474747474747 -0.9797979797979798 0.0
-0.4545454545454545 -0.9797979797979798 0.0
-0.43434343434343425 -0.9797979797979798 0.0
-0.41414141414141414 -0.9797979797979798 0.0
-0.3939393939393939 -0.9797979797979798 0.0
-0.3737373737373737 -0.9797979797979798 0.0
-0.3535353535353535 -0.9797979797979798 0.0
-0.33333333333333326 -0.9797979797979798 0.0
-0.31313131313131304 -0.9797979797979798 0.0
-0.2929292929292928 -0.9797979797979798 0.0
-0.2727272727272727 -0.9797979797979798 0.0
-0.2525252525252525 -0.9797979797979798 0.0
-0.23232323232323226 -0.9797979797979798 0.0
-0.21212121212121204 -0.9797979797979798 0.0
-0.19191919191919182 -0.9797979797979798 0.0
-0.1717171717171716 -0.9797979797979798 0.0
-0.1515151515151515 -0.9797979797979798 0.0
-0.13131313131313127 -0.9797979797979798 0.0
-0.11111111111111105 -0.9797979797979798 0.0
-0.09090909090909083 -0.9797979797979798 0.0
-0.07070707070707061 -0.9797979797979798 0.0
-0.050505050505050386 -0.9797979797979798 0.0
-0.030303030303030276 -0.9797979797979798 0.0
-0.010101010101010055 -0.9797979797979798 0.0
0.010101010101010166 -0.9797979797979798 0.0
0.030303030303030498 -0.9797979797979798 0.0
0.05050505050505061 -0.9797979797979798 0.0
0.07070707070707072 -0.9797979797979798 0.0
0.09090909090909105 -0.9797979797979798 0.0
0.11111111111111116 -0.9797979797979798 0.0
0.1313131313131315 -0.9797979797979798 0.0
0.1515151515151516 -0.9797979797979798 0.0
0.1717171717171717 -0.9797979797979798 0.0
0.19191919191919204 -0.9797979797979798 0.0
0.21212121212121215 -0.9797979797979798 0.0
0.2323232323232325 -0.9797979797979798 0.0
0.2525252525252526 -0.9797979797979798 0.0
0.27272727272727293 -0.9797979797979798 0.0
0.29292929292929304 -0.9797979797979798 0.0
0.31313131313131315 -0.9797979797979798 0.0
0.3333333333333335 -0.9797979797979798 0.0
0.3535353535353536 -0.9797979797979798 0.0
0.3737373737373739 -0.9797979797979798 0.0
0.39393939393939403 -0.9797979797979798 0.0
0.41414141414141437 -0.9797979797979798 0.0
0.4343434343434345 -0.9797979797979798 0.0
0.4545454545454546 -0.9797979797979798 0.0
0.4747474747474749 -0.9797979797979798 0.0
0.49494949494949503 -0.9797979797979798 0.0
0.5151515151515154 -0.9797979797979798 0.0
0.5353535353535355 -0.9797979797979798 0.0
0.5555555555555556 -0.9797979797979798 0.0
0.5757575757575759 -0.9797979797979798 0.0
0.595959595959596 -0.9797979797979798 0.0
0.6161616161616164 -0.9797979797979798 0.0
0.6363636363636365 -0.9797979797979798 0.0
0.6565656565656568 -0.9797979797979798 0.0
0.6767676767676769 -0.9797979797979798 0.0
0.696969696969697 -0.9797979797979798 0.0
0.7171717171717173 -0.9797979797979798 0.0
0.7373737373737375 -0.9797979797979798 0.0
0.7575757575757578 -0.9797979797979798 0.0
0.7777777777777779 -0.9797979797979798 0.0
0.7979797979797982 -0.9797979797979798 0.0
0.8181818181818183 -0.9797979797979798 0.0
0.8383838383838385 -0.9797979797979798 0.0
0.8585858585858588 -0.9797979797979798 0.0
0.8787878787878789 -0.9797979797979798 0.0
0.8989898989898992 -0.9797979797979798 0.0
0.9191919191919193 -0.9797979797979798 0.0
0.9393939393939394 -0.9797979797979798 0.0
0.9595959595959598 -0.9797979797979798 0.0
0.9797979797979799 -0.9797979797979798 0.0
1.0 -0.9797979797979798 0.0
-1.0 -0.9595959595959596 0.0
-0.9797979797979798 -0.9595959595959596 0.0
-0.9595959595959596 -0.9595959595959596 0.0
-0.9393939393939394 -0.9595959595959596 0.0
-0.9191919191919192 -0.9595959595959596 0.0
-0.898989898989899 -0.9595959595959596 0.0
-0.8787878787878788 -0.9595959595959596 0.0
-0.8585858585858586 -0.9595959595959596 0.0
-0.8383838383838383 -0.9595959595959596 0.0
-0.8181818181818181 -0.9595959595959596 0.0
-0.797979797979798 -0.9595959595959596 0.0
-0.7777777777777778 -0.9595959595959596 0.0
-0.7575757575757576 -0.9595959595959596 0.0
-0.7373737373737373 -0.9595959595959596 0.0
-0.7171717171717171 -0.9595959595959596 0.0
-0.696969696969697 -0.9595959595959596 0.0
-0.6767676767676767 -0.9595959595959596 0.0
-0.6565656565656566 -0.9595959595959596 0.0
-0.6363636363636364 -0.9595959595959596 0.0
-0.6161616161616161 -0.9595959595959596 0.0
-0.5959595959595959 -0.9595959595959596 0.0
-0.5757575757575757 -0.9595959595959596 0.0
-0.5555555555555556 -0.9595959595959596 0.0
-0.5353535353535352 -0.9595959595959596 0.0
-0.5151515151515151 -0.9595959595959596 0.0
-0.4949494949494949 -0.9595959595959596 0.0
-0.4747474747474747 -0.9595959595959596 0.0
-0.4545454545454545 -0.9595959595959596 0.0
-0.43434343434343425 -0.9595959595959596 0.0
-0.41414141414141414 -0.9595959595959596 0.0
-0.3939393939393939 -0.9595959595959596 0.0
-0.3737373737373737 -0.9595959595959596 0.0
-0.3535353535353535 -0.9595959595959596 0.0
-0.33333333333333326 -0.9595959595959596 0.0
-0.31313131313131304 -0.9595959595959596 0.0
-0.2929292929292928 -0.9595959595959596 0.0
-0.2727272727272727 -0.9595959595959596 0.0
-0.2525252525252525 -0.9595959595959596 0.0
-0.23232323232323226 -0.9595959595959596 0.0
-0.21212121212121204 -0.9595959595959596 0.0
-0.19191919191919182 -0.9595959595959596 0.0
-0.1717171717171716 -0.9595959595959596 0.0
-0.1515151515151515 -0.9595959595959596 0.0
-0.13131313131313127 -0.9595959595959596 0.0
-0.11111111111111105 -0.9595959595959596 0.0
-0.09090909090909083 -0.9595959595959596 0.0
-0.07070707070707061 -0.9595959595959596 0.0
-0.050505050505050386 -0.9595959595959596 0.0
-0.030303030303030276 -0.9595959595959596 0.0
-0.010101010101010055 -0.9595959595959596 0.0
0.010101010101010166 -0.9595959595959596 0.0
0.030303030303030498 -0.9595959595959596 0.0
0.05050505050505061 -0.9595959595959596 0.0
0.07070707070707072 -0.9595959595959596 0.0
0.09090909090909105 -0.9595959595959596 0.0
0.11111111111111116 -0.9595959595959596 0.0
0.1313131313131315 -0.9595959595959596 0.0
0.1515151515151516 -0.9595959595959596 0.0
0.1717171717171717 -0.9595959595959596 0.0
0.19191919191919204 -0.9595959595959596 0.0
0.21212121212121215 -0.9595959595959596 0.0
[...]
POINT_DATA 10000
SCALARS u float 1
LOOKUP_TABLE default
-0.12618249654769897
-0.08397341519594193
-0.044796593487262726
-0.00896076112985611
0.023274846374988556
0.051710017025470734
0.07619429379701614
0.09662813693284988
0.1129644587635994
0.12520691752433777
0.13341033458709717
0.13768449425697327
0.13819202780723572
0.1351533830165863
0.12884733080863953
0.11960963159799576
0.10783188790082932
0.0939638540148735
0.07850392907857895
0.06199749559164047
0.04501905292272568
0.028161518275737762
0.012013532221317291
-0.0028691366314888
-0.015992112457752228
-0.02695176750421524
-0.03546509891748428
-0.041392676532268524
-0.04474908858537674
-0.0457044318318367
-0.04457516223192215
-0.041794128715991974
-0.03787694126367569
-0.03337296098470688
-0.028818033635616302
-0.024682216346263885
-0.02132786065340042
-0.01898292452096939
-0.01772356778383255
-0.017473675310611725
-0.018025897443294525
-0.019071705639362335
-0.020236827433109283
-0.021125338971614838
-0.02135656028985977
-0.02060437947511673
-0.018617741763591766
-0.015245668590068817
-0.010439641773700714
-0.004256539046764374
0.0031474456191062927
0.011531077325344086
0.02058064192533493
0.029931925237178802
0.03918785601854324
0.047939591109752655
0.05579095333814621
0.06237979233264923
0.06740255653858185
0.07063791900873184
0.07196814566850662
0.07138621062040329
0.06900321692228317
0.06502724438905716
0.05975254625082016
0.05351509153842926
0.04666571319103241
0.039541639387607574
0.0324375256896019
0.025596708059310913
0.019197911024093628
0.013361260294914246
0.008149988949298859
0.0035752132534980774
-0.00038839876651763916
-0.0037980228662490845
-0.006727240979671478
-0.009260877966880798
-0.011481873691082
-0.013468071818351746
-0.0152839794754982
-0.016977928578853607
-0.018579982221126556
-0.020099617540836334
-0.021529115736484528
-0.02283911406993866
-0.023983493447303772
-0.024898402392864227
-0.02550312876701355
-0.02569497376680374
-0.025353647768497467
-0.024340227246284485
-0.022492267191410065
-0.019626297056674957
-0.015540339052677155
-0.010013297200202942
-0.0028079599142074585
0.006323181092739105
0.017634712159633636
0.03137674182653427
-0.07937688380479813
-0.0335082933306694
0.009264938533306122
0.048556528985500336
0.08404061943292618
0.11544825881719589
0.14256879687309265
0.16524586081504822
0.18337926268577576
0.1969211995601654
0.2058805525302887
0.21032080054283142
0.2103670835494995
0.20619991421699524
0.19806408882141113
0.1862647831439972
0.17117169499397278
0.1532135009765625
0.13287562131881714
0.11069601029157639
0.08724948018789291
0.06313718110322952
0.038966186344623566
0.015322409570217133
-0.007253952324390411
-0.028295449912548065
-0.047431014478206635
-0.06440543383359909
-0.07908489555120468
-0.09145394712686539
-0.10160497575998306
-0.10971082001924515
-0.11599879711866379
-0.12071279436349869
-0.12408220022916794
-0.12629467248916626
-0.1274718940258026
-0.12766477465629578
-0.12684383988380432
-0.12491921335458755
-0.12174836546182632
-0.11716654151678085
-0.11100304871797562
-0.10310966521501541
-0.09337609261274338
-0.08174783736467361
-0.0682363286614418
-0.05292508751153946
-0.03597439080476761
-0.017614983022212982
0.001849450170993805
0.022054366767406464
0.04257791489362717
0.06295200437307358
0.08267555385828018
0.10122915357351303
0.11809239536523819
0.1327667534351349
0.1448003053665161
0.1538207232952118
0.15956126153469086
0.1618858128786087
0.1608067750930786
0.15647920966148376
0.14918962121009827
0.13932189345359802
0.1273135244846344
0.11361848562955856
0.09866241365671158
0.08282145112752914
0.06640587002038956
0.04965997487306595
0.03276746720075607
0.01586725562810898
-0.0009291544556617737
-0.01752319186925888
-0.033805929124355316
-0.0496516227722168
-0.06490438431501389
-0.07937560230493546
-0.09284623712301254
-0.1050756648182869
-0.11581460386514664
-0.12482353299856186
-0.13188877701759338
-0.1368384063243866
-0.1395542025566101
-0.13997355103492737
-0.13809320330619812
-0.1339508593082428
-0.12761813402175903
-0.11918238550424576
-0.1087297573685646
-0.09632735699415207
-0.08201418071985245
-0.06579209119081497
-0.04762253910303116
-0.027429752051830292
-0.005104392766952515
0.019482553005218506
-0.03404722362756729
0.015763752162456512
0.06248422712087631
0.10564600676298141
0.1448463499546051
0.17974227666854858
0.2100541889667511
0.2355605959892273
0.2560979425907135
0.2715615928173065
0.2819002866744995
0.2871270477771759
0.2873086929321289
0.28257831931114197
0.2731319069862366
0.25923043489456177
0.24120226502418518
0.21944105625152588
0.19440191984176636
0.1665993332862854
0.13659358024597168
0.10498125106096268
0.07237117737531662
0.039372362196445465
0.006561942398548126
-0.02553161233663559
-0.05644727498292923
-0.08580062538385391
-0.11328541487455368
-0.13866189122200012
-0.16173946857452393
-0.18235862255096436
-0.20036658644676208
-0.2156047523021698
-0.22790366411209106
-0.23708361387252808
-0.2429724633693695
-0.24542251229286194
-0.2443268597126007
-0.2396375834941864
-0.23137304186820984
-0.21961888670921326
-0.20451736450195312
-0.18626806139945984
-0.165106862783432
-0.1413041353225708
-0.11515938490629196
-0.08699802309274673
-0.05717314034700394
-0.026071302592754364
0.005884341895580292
0.0382295623421669
0.07045576721429825
0.10201152414083481
0.13230597972869873
0.16072112321853638
0.18662455677986145
0.20939254760742188
0.2284429669380188
0.24326416850090027
0.2534549832344055
0.2587542235851288
0.25906872749328613
0.25448620319366455
0.24526053667068481
0.23179113864898682
0.21458137035369873
0.19418150186538696
0.17114312946796417
0.14598029851913452
0.11914315074682236
0.09101001173257828
0.06190257519483566
0.032096393406391144
0.001851346343755722
-0.028563328087329865
-0.05884898453950882
-0.08865264803171158
-0.11756729334592819
-0.14512163400650024
-0.1708013117313385
-0.19406452775001526
-0.21437162160873413
-0.2312231957912445
-0.24419459700584412
-0.25296422839164734
-0.2573392689228058
-0.2572578191757202
-0.25278961658477783
-0.24411827325820923
-0.2315106987953186
-0.2152906060218811
-0.1958000361919403
-0.17337152361869812
-0.14829927682876587
-0.12082839757204056
-0.09113381057977676
-0.05932900309562683
-0.025469161570072174
0.010435827076435089
0.008804701268672943
0.06274726241827011
0.1136833056807518
0.161058247089386
0.2043827474117279
0.24323630332946777
0.2772592008113861
0.30615872144699097
0.3297009766101837
0.34771114587783813
0.36007335782051086
0.3667323589324951
0.3676901161670685
0.36301422119140625
0.35283440351486206
0.337348997592926
0.3168281018733978
0.2916053235530853
0.26208817958831787
0.22874656319618225
0.1921093463897705
0.15274927020072937
0.1112767830491066
0.06831378489732742
0.024480484426021576
-0.019616492092609406
-0.06340063363313675
-0.10631991177797318
-0.14784255623817444
-0.1874406337738037
-0.22457480430603027
-0.25867944955825806
-0.28915858268737793
-0.3154045343399048
-0.336818665266037
-0.35285863280296326
-0.36307889223098755
-0.367180198431015
-0.365035742521286
-0.35670456290245056
-0.342424601316452
-0.3225855529308319
-0.2976875901222229
-0.2683011591434479
-0.23502659797668457
-0.1984635889530182
-0.15919342637062073
-0.11777208000421524
-0.07473904639482498
-0.03062240034341812
0.014042548835277557
0.058695100247859955
0.10274066776037216
0.1455407738685608
0.18641307950019836
0.22463861107826233
0.25947755575180054
0.29019516706466675
0.31609246134757996
0.33654871582984924
0.35105100274086
0.3592390716075897
0.3609294891357422
0.3561341166496277
0.3450610637664795
0.3280966877937317
0.3057684898376465
0.2786932587623596
0.2475263476371765
0.21290558576583862
0.17542621493339539
0.13561581075191498
0.09395013004541397
0.0508669838309288
0.006798461079597473
-0.03779604285955429
-0.08240088075399399
-0.12642723321914673
-0.16919854283332825
-0.20996496081352234
-0.2479175329208374
-0.28222599625587463
-0.3120822012424469
-0.3367499113082886
-0.35561227798461914
-0.36821696162223816
-0.3743000626564026
-0.37379735708236694
-0.3668418824672699
-0.353739470243454
-0.3349321484565735
-0.3109520375728607
-0.2823841869831085
-0.2498122751712799
-0.21378681063652039
-0.17479726672172546
-0.13325047492980957
-0.08947112411260605
-0.0437016636133194
0.0038794800639152527
0.048224590718746185
0.10637696832418442
0.16169172525405884
0.2135261595249176
0.2612990736961365
0.30450353026390076
0.342696875333786
0.37550491094589233
0.4026152193546295
0.423775315284729
0.4387941062450409
0.447536438703537
0.449926495552063
0.4459492266178131
0.4356519281864166
0.4191487729549408
0.39662179350852966
0.36832714080810547
0.33459317684173584
0.2958231568336487
0.25249162316322327
0.20513808727264404
0.15436068177223206
0.10080722719430923
0.04516308754682541
-0.011850707232952118
-0.06948200613260269
-0.12693697214126587
-0.18337562680244446
-0.23789340257644653
-0.28952616453170776
-0.33724701404571533
-0.3800049126148224
-0.4167623221874237
-0.44656482338905334
-0.4686000645160675
-0.48226508498191833
-0.48721209168434143
-0.48337069153785706
-0.4709489047527313
-0.4504065215587616
-0.4224094748497009
-0.38776707649230957
-0.34736981987953186
-0.30213314294815063
-0.25294747948646545
-0.20065075159072876
-0.14602306485176086
-0.08978355675935745
-0.03261549025774002
0.024815373122692108
0.0818316712975502
0.1377301812171936
0.1917608678340912
0.24313288927078247
0.29101628065109253
0.33456674218177795
0.37294697761535645
0.40537166595458984
0.43113693594932556
0.44966354966163635
0.46052250266075134
0.463468998670578
0.45845410227775574
0.4456303119659424
0.4253429174423218
0.39810410141944885
0.3645526170730591
0.325404554605484
0.28140223026275635
0.23327329754829407
0.18170864880084991
0.1273617148399353
0.0708652064204216
0.01286035031080246
-0.04596574604511261
-0.1048566922545433
-0.162962406873703
-0.21933799982070923
-0.27296003699302673
-0.32275667786598206
-0.36764761805534363
-0.4066048264503479
-0.4387061297893524
-0.4631892740726471
-0.479501873254776
-0.4873218834400177
-0.4865816533565521
-0.4774477183818817
-0.4603077471256256
-0.4357259273529053
-0.40439972281455994
-0.3671054542064667
-0.32464656233787537
-0.277809202671051
-0.2273254096508026
-0.17384570837020874
-0.11792495101690292
-0.06003209203481674
-0.0005509182810783386
0.08335220068693161
0.1456642746925354
0.2054017186164856
0.2618246078491211
0.31426289677619934
0.3621135950088501
0.4048471450805664
0.44200003147125244
0.4731738865375519
0.4980320334434509
0.5162969827651978
0.5277448296546936
0.5322060585021973
0.5295685529708862
0.5197768211364746
0.5028344988822937
0.478814959526062
0.44786137342453003
0.41019660234451294
0.3661256730556488
0.31604647636413574
0.26044997572898865
0.1999269723892212
0.1351657211780548
0.06696458905935287
-0.003771163523197174
-0.07602224498987198
-0.14864537119865417
-0.22038009762763977
-0.28984972834587097
-0.35559985041618347
-0.41613730788230896
-0.4700062572956085
-0.515857994556427
-0.5525331497192383
-0.5791318416595459
-0.5950562357902527
-0.6000330448150635
-0.594118595123291
-0.5776702761650085
-0.5513160228729248
-0.5158987641334534
-0.4724203050136566
-0.42197540402412415
-0.36569249629974365
-0.30468249320983887
-0.24000295996665955
-0.17264118790626526
-0.10351479798555374
-0.03348911553621292
0.03659845143556595
0.10591026395559311
0.17358830571174622
0.2387373149394989
0.3004268407821655
0.3577050268650055
0.4096204340457916
0.45525678992271423
0.49376651644706726
0.5244064331054688
0.5465672016143799
0.5597972869873047
0.5638210773468018
0.5585466623306274
0.5440722107887268
0.5206851959228516
0.4888452887535095
0.44916394352912903
0.40237101912498474
0.34927359223365784
0.29071733355522156
0.22756049036979675
0.16065937280654907
0.09088367223739624
0.019131064414978027
-0.05364411324262619
-0.12640628218650818
-0.19803187251091003
-0.267312616109848
-0.33297964930534363
-0.3937441408634186
-0.44834205508232117
-0.49559590220451355
-0.5344656109809875
-0.564103901386261
-0.5838947892189026
-0.5934794545173645
-0.5927700400352478
-0.5819364190101624
-0.5613926649093628
-0.5317627787590027
-0.4938344657421112
-0.4485125243663788
-0.3967677354812622
-0.33958667516708374
-0.2779289186000824
-0.2126917541027069
-0.14469113945960999
-0.07465095072984695
-0.0032094791531562805
0.11345701664686203
0.17974936962127686
0.24381554126739502
0.30482733249664307
0.36201876401901245
0.4146919846534729
0.46222057938575745
0.5040488839149475
0.5396863222122192
0.5687026381492615
0.5907256603240967
0.605431854724884
0.6125462055206299
0.6118438839912415
0.6031431555747986
0.5863204598426819
0.561305046081543
0.5280998945236206
0.4867854714393616
0.43754294514656067
0.3806680142879486
0.316593199968338
0.245913565158844
0.16939958930015564
0.08803179115056992
0.0029990002512931824
-0.08428450673818588
-0.17219838500022888
-0.25894007086753845
-0.34259533882141113
-0.42120444774627686
-0.49287715554237366
-0.5558825731277466
-0.6087518930435181
-0.650333046913147
-0.6798311471939087
-0.6968122124671936
-0.701179027557373
-0.6931422352790833
-0.6731792092323303
-0.6419955492019653
-0.6004875302314758
-0.5497013926506042
-0.4907917082309723
-0.4249727427959442
-0.3534822463989258
-0.2775397002696991
-0.19832277297973633
-0.11696238070726395
-0.03454530984163284
0.04786642640829086
0.12921538949012756
0.20843178033828735
0.28442898392677307
0.35611018538475037
0.4223858416080475
0.48220619559288025
0.5345934629440308
0.5786717534065247
0.6136977076530457
0.639071524143219
0.654352068901062
0.6592627763748169
0.6536862254142761
0.6376734375953674
0.6114392876625061
0.5753701329231262
0.5300083160400391
0.4760564863681793
0.41434523463249207
0.3458152115345001
0.2714879512786865
0.19245147705078125
0.10984812676906586
0.02487962692975998
-0.06118316203355789
-0.1470036804676056
-0.23117563128471375
-0.3122497498989105
-0.3887593150138855
-0.45926061272621155
-0.5223843455314636
-0.5768817067146301
-0.6216703653335571
-0.6558740735054016
-0.6788514852523804
-0.6902205348014832
-0.6898593902587891
-0.6779053807258606
-0.654748260974884
-0.6209946274757385
-0.5774496793746948
-0.5250719785690308
-0.4649339020252228
-0.3981744647026062
-0.3259546160697937
-0.24941644072532654
-0.16965246200561523
-0.08767811208963394
-0.004432804882526398
0.1379775106906891
0.20793098211288452
0.2760961353778839
0.3415546715259552
0.4034481346607208
0.46098044514656067
0.5134285688400269
0.5601348280906677
0.6005118489265442
0.6340284943580627
0.6602083444595337
0.6786186099052429
0.6888685822486877
0.6906026005744934
0.6834989786148071
0.6672763228416443
0.6417004466056824
0.6065974831581116
0.5618807077407837
0.5075746774673462
0.4438594579696655
0.371111661195755
0.289957731962204
0.20131716132164001
0.10644754022359848
0.0069556161761283875
-0.09521441906690598
-0.1978345811367035
-0.298490434885025
-0.3947094976902008
-0.4841138422489166
-0.5645583271980286
-0.6342464089393616
-0.6918017268180847
-0.736277163028717
-0.7671414017677307
-0.7842184901237488
-0.7876254916191101
-0.7777174711227417
-0.7550367116928101
-0.7202805876731873
-0.6742858290672302
-0.6180158257484436
-0.5525503754615784
-0.47906771302223206
-0.39882636070251465
-0.3131357729434967
-0.22333255410194397
-0.13076090812683105
-0.036762677133083344
0.05732332915067673
0.15016111731529236
0.2404157817363739
0.326764851808548
0.40791648626327515
0.48263904452323914
0.5497920513153076
0.6083584427833557
0.6574664115905762
0.6963971257209778
0.7245917916297913
0.7416427731513977
0.7472859621047974
0.741392195224762
0.7239659428596497
0.6951523423194885
0.6552454829216003
0.6047078967094421
0.5441805124282837
0.47449353337287903
0.39666101336479187
0.3118661940097809
0.2214389443397522
0.1268276572227478
0.029577098786830902
-0.06870316714048386
-0.16635927557945251
-0.2617173492908478
-0.3531242311000824
-0.43897297978401184
-0.5177424550056458
-0.5880341529846191
-0.648598313331604
-0.698371946811676
-0.7364957928657532
-0.7623334527015686
-0.7754839658737183
-0.7757831811904907
-0.7633083462715149
-0.7383691668510437
-0.7015016674995422
-0.6534551382064819
-0.5951715111732483
-0.5277553200721741
-0.4524426758289337
-0.3705579340457916
-0.28347140550613403
-0.19255468249320984
-0.09914923459291458
-0.004531212151050568
0.15654003620147705
0.2297050952911377
0.30159634351730347
0.37121668457984924
0.4376147985458374
0.4998987317085266
0.5572412610054016
0.6088832020759583
0.6541311144828796
0.6923450231552124
0.722937285900116
0.745357096195221
0.7590827345848083
0.763616144657135
0.758478045463562
0.7432110905647278
0.7173896431922913
0.6806452870368958
0.6326944231987
0.5733959674835205
0.5028071999549866
0.4212774336338043
0.3295172452926636
0.228687584400177
0.12044789642095566
0.006955422461032867
-0.1091897264122963
-0.22507911920547485
-0.33768796920776367
-0.44408103823661804
-0.5416260361671448
-0.6281384825706482
-0.7019757628440857
-0.7620353102684021
-0.8077084422111511
-0.8387920260429382
-0.8553847670555115
-0.8577982783317566
-0.8464835286140442
-0.821990430355072
-0.7849425077438354
-0.7360470294952393
-0.6761031746864319
-0.6060245633125305
-0.5268606543540955
-0.4397973120212555
-0.3461597263813019
-0.24738988280296326
-0.1450253129005432
-0.040669672191143036
0.06403035670518875
0.16742011904716492
0.2678585648536682
0.36375826597213745
0.4536187946796417
0.5360634922981262
0.6098753809928894
0.674013614654541
0.7276270985603333
0.7700383067131042
0.800737738609314
0.8193552494049072
0.8256425261497498
0.8194566369056702
0.800759494304657
0.769627034664154
0.7262682318687439
0.6710630655288696
0.604594886302948
0.5276884436607361
0.44142624735832214
0.34715214371681213
0.2464413344860077
0.14105793833732605
0.03289417177438736
-0.07609874755144119
-0.18396782875061035
-0.2888140380382538
-0.3888287842273712
-0.4823334515094757
-0.5677928328514099
-0.6438382267951965
-0.7092769145965576
-0.7631009221076965
-0.8044960498809814
-0.8328457474708557
-0.8477327823638916
-0.8489443063735962
-0.8364746570587158
-0.8105294108390808
-0.7715296149253845
-0.7201172113418579
-0.6571564078330994
-0.5837221741676331
-0.5010905861854553
-0.41070306301116943
-0.3141268789768219
-0.21300601959228516
-0.10901490598917007
-0.0037919506430625916
0.16896942257881165
0.24477410316467285
0.31988829374313354
0.39324402809143066
0.463801771402359
0.5305754542350769
0.5926346182823181
0.6491129994392395
0.6992020010948181
0.7421496510505676
0.7772430777549744
0.8038035035133362
0.8211688995361328
0.8286848068237305
0.8256971836090088
0.8115617036819458
0.7856455445289612
0.7473669052124023
0.6962469220161438
0.6319760680198669
0.5545268654823303
0.46426424384117126
0.36208027601242065
0.2494875192642212
0.12867587804794312
0.0024629905819892883
-0.12583580613136292
-0.2526630759239197
-0.37449315190315247
-0.4881254732608795
-0.5909018516540527
-0.6808217763900757
-0.7565612196922302
-0.8173946738243103
-0.8630825281143188
-0.8937286138534546
-0.9096522927284241
-0.9112945795059204
-0.8991451859474182
-0.8737090229988098
-0.8355045318603516
-0.785075843334198
-0.7230315804481506
-0.6500887274742126
-0.5671156048774719
-0.47517290711402893
-0.3755355179309845
-0.2696925699710846
-0.15932908654212952
-0.04628586024045944
0.06749475747346878
0.1800329089164734
0.2893765866756439
0.39366793632507324
0.4911995828151703
0.5804591774940491
0.6601579785346985
0.7292407751083374
0.7868717908859253
0.8324133157730103
0.8653901815414429
0.8854559659957886
0.8923640847206116
0.8859506249427795
0.8661314845085144
0.8329221606254578
0.7864642143249512
0.7270818948745728
0.6553304195404053
0.5720543265342712
0.4784238040447235
0.37594759464263916
0.26643887162208557
0.15195602178573608
0.03470207750797272
-0.08307657390832901
-0.19918480515480042
-0.3115542531013489
-0.4182896614074707
-0.5176917910575867
-0.60826176404953
-0.6886947751045227
-0.7578746676445007
-0.8148671388626099
-0.8589066863059998
-0.8893981575965881
-0.9059126973152161
-0.9081823229789734
-0.896115243434906
-0.8698016405105591
-0.8295299410820007
-0.7758087515830994
-0.70938640832901
-0.631263792514801