# vtk DataFile Version 3.0
2D PINN Solution
ASCII
DATASET STRUCTURED_GRID
DIMENSIONS 100 100 1
POINTS 10000 float
-1.0 -1.0 0.0
-0.9797979797979798 -1.0 0.0
-0.9595959595959596 -1.0 0.0
-0.9393939393939394 -1.0 0.0
-0.9191919191919192 -1.0 0.0
-0.898989898989899 -1.0 0.0
-0.8787878787878788 -1.0 0.0
-0.8585858585858586 -1.0 0.0
-0.8383838383838383 -1.0 0.0
-0.8181818181818181 -1.0 0.0
-0.797979797979798 -1.0 0.0
-0.7777777777777778 -1.0 0.0
-0.7575757575757576 -1.0 0.0
-0.7373737373737373 -1.0 0.0
-0.7171717171717171 -1.0 0.0
-0.696969696969697 -1.0 0.0
-0.6767676767676767 -1.0 0.0
-0.6565656565656566 -1.0 0.0
-0.6363636363636364 -1.0 0.0
-0.6161616161616161 -1.0 0.0
-0.5959595959595959 -1.0 0.0
-0.5757575757575757 -1.0 0.0
-0.5555555555555556 -1.0 0.0
-0.5353535353535352 -1.0 0.0
-0.5151515151515151 -1.0 0.0
-0.4949494949494949 -1.0 0.0
-0.4747474747474747 -1.0 0.0
-0.4545454545454545 -1.0 0.0
-0.43434343434343425 -1.0 0.0
-0.41414141414141414 -1.0 0.0
-0.3939393939393939 -1.0 0.0
-0.3737373737373737 -1.0 0.0
-0.3535353535353535 -1.0 0.0
-0.33333333333333326 -1.0 0.0
-0.31313131313131304 -1.0 0.0
-0.2929292929292928 -1.0 0.0
-0.2727272727272727 -1.0 0.0
-0.2525252525252525 -1.0 0.0
-0.23232323232323226 -1.0 0.0
-0.21212121212121204 -1.0 0.0
-0.19191919191919182 -1.0 0.0
-0.1717171717171716 -1.0 0.0
-0.1515151515151515 -1.0 0.0
-0.13131313131313127 -1.0 0.0
-0.11111111111111105 -1.0 0.0
-0.09090909090909083 -1.0 0.0
-0.07070707070707061 -1.0 0.0
-0.050505050505050386 -1.0 0.0
-0.030303030303030276 -1.0 0.0
-0.010101010101010055 -1.0 0.0
0.010101010101010166 -1.0 0.0
0.030303030303030498 -1.0 0.0
0.05050505050505061 -1.0 0.0
0.07070707070707072 -1.0 0.0
0.09090909090909105 -1.0 0.0
0.11111111111111116 -1.0 0.0
0.1313131313131315 -1.0 0.0
0.1515151515151516 -1.0 0.0
0.1717171717171717 -1.0 0.0
0.19191919191919204 -1.0 0.0
0.21212121212121215 -1.0 0.0
0.2323232323232325 -1.0 0.0
0.2525252525252526 -1.0 0.0
0.27272727272727293 -1.0 0.0
0.29292929292929304 -1.0 0.0
0.31313131313131315 -1.0 0.0
0.3333333333333335 -1.0 0.0
0.3535353535353536 -1.0 0.0
0.3737373737373739 -1.0 0.0
0.39393939393939403 -1.0 0.0
0.41414141414141437 -1.0 0.0
0.4343434343434345 -1.0 0.0
0.4545454545454546 -1.0 0.0
0.4747474747474749 -1.0 0.0
0.49494949494949503 -1.0 0.0
0.5151515151515154 -1.0 0.0
0.5353535353535355 -1.0 0.0
0.5555555555555556 -1.0 0.0
0.5757575757575759 -1.0 0.0
0.595959595959596 -1.0 0.0
0.6161616161616164 -1.0 0.0
0.6363636363636365 -1.0 0.0
0.6565656565656568 -1.0 0.0
0.6767676767676769 -1.0 0.0
0.696969696969697 -1.0 0.0
0.7171717171717173 -1.0 0.0
0.7373737373737375 -1.0 0.0
0.7575757575757578 -1.0 0.0
0.7777777777777779 -1.0 0.0
0.7979797979797982 -1.0 0.0
0.8181818181818183 -1.0 0.0
0.8383838383838385 -1.0 0.0
0.8585858585858588 -1.0 0.0
0.8787878787878789 -1.0 0.0
0.8989898989898992 -1.0 0.0
0.9191919191919193 -1.0 0.0
0.9393939393939394 -1.0 0.0
0.9595959595959598 -1.0 0.0
0.9797979797979799 -1.0 0.0
1.0 -1.0 0.0
-1.0 -0.9797979797979798 0.0
-0.9797979797979798 -0.9797979797979798 0.0
-0.9595959595959596 -0.9797979797979798 0.0
-0.9393939393939394 -0.9797979797979798 0.0
-0.9191919191919192 -0.9797979797979798 0.0
-0.898989898989899 -0.9797979797979798 0.0
-0.8787878787878788 -0.9797979797979798 0.0
-0.8585858585858586 -0.9797979797979798 0.0
-0.8383838383838383 -0.9797979797979798 0.0
-0.8181818181818181 -0.9797979797979798 0.0
-0.797979797979798 -0.9797979797979798 0.0
-0.7777777777777778 -0.9797979797979798 0.0
-0.7575757575757576 -0.9797979797979798 0.0
-0.7373737373737373 -0.9797979797979798 0.0
-0.7171717171717171 -0.9797979797979798 0.0
-0.696969696969697 -0.9797979797979798 0.0
-0.6767676767676767 -0.9797979797979798 0.0
-0.6565656565656566 -0.9797979797979798 0.0
-0.6363636363636364 -0.9797979797979798 0.0
-0.6161616161616161 -0.9797979797979798 0.0
-0.5959595959595959 -0.9797979797979798 0.0
-0.5757575757575757 -0.9797979797979798 0.0
-0.5555555555555556 -0.9797979797979798 0.0
-0.5353535353535352 -0.9797979797979798 0.0
-0.5151515151515151 -0.9797979797979798 0.0
-0.4949494949494949 -0.9797979797979798 0.0
-0.4747474747474747 -0.9797979797979798 0.0
-0.4545454545454545 -0.9797979797979798 0.0
-0.43434343434343425 -0.9797979797979798 0.0
-0.41414141414141414 -0.9797979797979798 0.0
-0.3939393939393939 -0.9797979797979798 0.0
-0.3737373737373737 -0.9797979797979798 0.0
-0.3535353535353535 -0.9797979797979798 0.0
-0.33333333333333326 -0.9797979797979798 0.0
-0.31313131313131304 -0.9797979797979798 0.0
-0.2929292929292928 -0.9797979797979798 0.0
-0.2727272727272727 -0.9797979797979798 0.0
-0.2525252525252525 -0.9797979797979798 0.0
-0.23232323232323226 -0.9797979797979798 0.0
-0.21212121212121204 -0.9797979797979798 0.0
-0.19191919191919182 -0.9797979797979798 0.0
-0.1717171717171716 -0.9797979797979798 0.0
-0.1515151515151515 -0.9797979797979798 0.0
-0.13131313131313127 -0.9797979797979798 0.0
-0.11111111111111105 -0.9797979797979798 0.0
-0.09090909090909083 -0.9797979797979798 0.0
-0.07070707070707061 -0.9797979797979798 0.0
-0.050505050505050386 -0.9797979797979798 0.0
-0.030303030303030276 -0.9797979797979798 0.0
-0.010101010101010055 -0.9797979797979798 0.0
0.010101010101010166 -0.9797979797979798 0.0
0.030303030303030498 -0.9797979797979798 0.0
0.05050505050505061 -0.9797979797979798 0.0
0.07070707070707072 -0.9797979797979798 0.0
0.09090909090909105 -0.9797979797979798 0.0
0.11111111111111116 -0.9797979797979798 0.0
0.1313131313131315 -0.9797979797979798 0.0
0.1515151515151516 -0.9797979797979798 0.0
0.1717171717171717 -0.9797979797979798 0.0
0.19191919191919204 -0.9797979797979798 0.0
0.21212121212121215 -0.9797979797979798 0.0
0.2323232323232325 -0.9797979797979798 0.0
0.2525252525252526 -0.9797979797979798 0.0
0.27272727272727293 -0.9797979797979798 0.0
0.29292929292929304 -0.9797979797979798 0.0
0.31313131313131315 -0.9797979797979798 0.0
0.3333333333333335 -0.9797979797979798 0.0
0.3535353535353536 -0.9797979797979798 0.0
0.3737373737373739 -0.9797979797979798 0.0
0.39393939393939403 -0.9797979797979798 0.0
0.41414141414141437 -0.9797979797979798 0.0
0.4343434343434345 -0.9797979797979798 0.0
0.4545454545454546 -0.9797979797979798 0.0
0.4747474747474749 -0.9797979797979798 0.0
0.49494949494949503 -0.9797979797979798 0.0
0.5151515151515154 -0.9797979797979798 0.0
0.5353535353535355 -0.9797979797979798 0.0
0.5555555555555556 -0.9797979797979798 0.0
0.5757575757575759 -0.9797979797979798 0.0
0.595959595959596 -0.9797979797979798 0.0
0.6161616161616164 -0.9797979797979798 0.0
0.6363636363636365 -0.9797979797979798 0.0
0.6565656565656568 -0.9797979797979798 0.0
0.6767676767676769 -0.9797979797979798 0.0
0.696969696969697 -0.9797979797979798 0.0
0.7171717171717173 -0.9797979797979798 0.0
0.7373737373737375 -0.9797979797979798 0.0
0.7575757575757578 -0.9797979797979798 0.0
0.7777777777777779 -0.9797979797979798 0.0
0.7979797979797982 -0.9797979797979798 0.0
0.8181818181818183 -0.9797979797979798 0.0
0.8383838383838385 -0.9797979797979798 0.0
0.8585858585858588 -0.9797979797979798 0.0
0.8787878787878789 -0.9797979797979798 0.0
0.8989898989898992 -0.9797979797979798 0.0
0.9191919191919193 -0.9797979797979798 0.0
0.9393939393939394 -0.9797979797979798 0.0
0.9595959595959598 -0.9797979797979798 0.0
0.9797979797979799 -0.9797979797979798 0.0
1.0 -0.9797979797979798 0.0
-1.0 -0.9595959595959596 0.0
-0.9797979797979798 -0.9595959595959596 0.0
-0.9595959595959596 -0.9595959595959596 0.0
-0.9393939393939394 -0.9595959595959596 0.0
-0.9191919191919192 -0.9595959595959596 0.0
-0.898989898989899 -0.9595959595959596 0.0
-0.8787878787878788 -0.9595959595959596 0.0
-0.8585858585858586 -0.9595959595959596 0.0
-0.8383838383838383 -0.9595959595959596 0.0
-0.8181818181818181 -0.9595959595959596 0.0
-0.797979797979798 -0.9595959595959596 0.0
-0.7777777777777778 -0.9595959595959596 0.0
-0.7575757575757576 -0.9595959595959596 0.0
-0.7373737373737373 -0.9595959595959596 0.0
-0.7171717171717171 -0.9595959595959596 0.0
-0.696969696969697 -0.9595959595959596 0.0
-0.6767676767676767 -0.9595959595959596 0.0
-0.6565656565656566 -0.9595959595959596 0.0
-0.6363636363636364 -0.9595959595959596 0.0
-0.6161616161616161 -0.9595959595959596 0.0
-0.5959595959595959 -0.9595959595959596 0.0
-0.5757575757575757 -0.9595959595959596 0.0
-0.5555555555555556 -0.9595959595959596 0.0
-0.5353535353535352 -0.9595959595959596 0.0
-0.5151515151515151 -0.9595959595959596 0.0
-0.4949494949494949 -0.9595959595959596 0.0
-0.4747474747474747 -0.9595959595959596 0.0
-0.4545454545454545 -0.9595959595959596 0.0
-0.43434343434343425 -0.9595959595959596 0.0
-0.41414141414141414 -0.9595959595959596 0.0
-0.3939393939393939 -0.9595959595959596 0.0
-0.3737373737373737 -0.9595959595959596 0.0
-0.3535353535353535 -0.9595959595959596 0.0
-0.33333333333333326 -0.9595959595959596 0.0
-0.31313131313131304 -0.9595959595959596 0.0
-0.2929292929292928 -0.9595959595959596 0.0
-0.2727272727272727 -0.9595959595959596 0.0
-0.2525252525252525 -0.9595959595959596 0.0
-0.23232323232323226 -0.9595959595959596 0.0
-0.21212121212121204 -0.9595959595959596 0.0
-0.19191919191919182 -0.9595959595959596 0.0
-0.1717171717171716 -0.9595959595959596 0.0
-0.1515151515151515 -0.9595959595959596 0.0
-0.13131313131313127 -0.9595959595959596 0.0
-0.11111111111111105 -0.9595959595959596 0.0
-0.09090909090909083 -0.9595959595959596 0.0
-0.07070707070707061 -0.9595959595959596 0.0
-0.050505050505050386 -0.9595959595959596 0.0
-0.030303030303030276 -0.9595959595959596 0.0
-0.010101010101010055 -0.9595959595959596 0.0
0.010101010101010166 -0.9595959595959596 0.0
0.030303030303030498 -0.9595959595959596 0.0
0.05050505050505061 -0.9595959595959596 0.0
0.07070707070707072 -0.9595959595959596 0.0
0.09090909090909105 -0.9595959595959596 0.0
0.11111111111111116 -0.9595959595959596 0.0
0.1313131313131315 -0.9595959595959596 0.0
0.1515151515151516 -0.9595959595959596 0.0
0.1717171717171717 -0.9595959595959596 0.0
0.19191919191919204 -0.9595959595959596 0.0
0.21212121212121215 -0.9595959595959596 0.0
[...]
POINT_DATA 10000
SCALARS u float 1
LOOKUP_TABLE default
0.8366639018058777
0.8757529258728027
0.8994765877723694
0.9081214070320129
0.90228670835495
0.88276207447052
0.850409746170044
0.8060735464096069
0.750516414642334
0.6844008564949036
0.608314573764801
0.5228269100189209
0.4285871684551239
0.3264363408088684
0.21751725673675537
0.10336362570524216
-0.014067746698856354
-0.1324312686920166
-0.24910715222358704
-0.3613807260990143
-0.4666557013988495
-0.5626455545425415
-0.6475306749343872
-0.7200272679328918
-0.7793819308280945
-0.825301468372345
-0.8578396439552307
-0.8772707581520081
-0.8839655518531799
-0.8782946467399597
-0.8605532050132751
-0.830925703048706
-0.7894867062568665
-0.7362473011016846
-0.6712435483932495
-0.5946621298789978
-0.5069760680198669
-0.40907153487205505
-0.3023245632648468
-0.18861451745033264
-0.07025425881147385
0.05014257878065109
0.16983956098556519
0.2861599326133728
0.3966551125049591
0.49921172857284546
0.592108964920044
0.6740112900733948
0.743927538394928
0.8011499047279358
0.8451895713806152
0.8757317662239075
0.8926073312759399
0.895768940448761
0.88528972864151
0.8613596558570862
0.8242917060852051
0.7745383381843567
0.7127107977867126
0.639607846736908
0.5562472343444824
0.4638819396495819
0.36399340629577637
0.2582513391971588
0.1484425961971283
0.03638134151697159
-0.07616374641656876
-0.18751263618469238
-0.2960885763168335
-0.4003911316394806
-0.4989716112613678
-0.5904046893119812
-0.6732780337333679
-0.746204137802124
-0.8078557848930359
-0.8569995760917664
-0.8925517201423645
-0.9136243462562561
-0.9195709824562073
-0.9100297093391418
-0.8849526643753052
-0.8446356654167175
-0.7897363305091858
-0.7212700247764587
-0.6405975818634033
-0.5493822693824768
-0.4495216906070709
-0.3430681526660919
-0.23212739825248718
-0.11876625567674637
-0.004924900829792023
0.10764022916555405
0.21739718317985535
0.32305508852005005
0.4235563278198242
0.5180654525756836
0.6059468984603882
0.6867371797561646
0.7601260542869568
0.825925886631012
0.8749943971633911
0.9150435328483582
0.9395976066589355
0.9489860534667969
0.9437727928161621
0.9246549010276794
0.8923561573028564
0.8475552201271057
0.7908338904380798
0.7226772904396057
0.6435126066207886
0.5537979006767273
0.4541529715061188
0.3454989194869995
0.22919976711273193
0.10714080184698105
-0.018266059458255768
-0.1441974937915802
-0.26761671900749207
-0.38553500175476074
-0.4952645003795624
-0.5946120619773865
-0.6819785833358765
-0.7563582062721252
-0.8172608613967896
-0.8645914196968079
-0.89851313829422
-0.9193076491355896
-0.9272668361663818
-0.9226126670837402
-0.9054442048072815
-0.8757331371307373
-0.8333479166030884
-0.7781341671943665
-0.7100281715393066
-0.6292009353637695
-0.5362127423286438
-0.4321332275867462
-0.318604439496994
-0.1978096067905426
-0.07236763089895248
0.05484273284673691
0.18088939785957336
0.3029823899269104
0.4186210036277771
0.5256894826889038
0.6224847435951233
0.7076957821846008
0.7803521156311035
0.8397610187530518
0.8854557275772095
0.917147159576416
0.9346951842308044
0.9380918741226196
0.9274465441703796
0.9029806852340698
0.865021824836731
0.8140087127685547
0.7505038380622864
0.6752171516418457
0.5890440344810486
0.4931006133556366
0.38875293731689453
0.2776205241680145
0.1615387201309204
0.04249244183301926
-0.07747567445039749
-0.19634822010993958
-0.3121950626373291
-0.42320236563682556
-0.5276698470115662
-0.6240164637565613
-0.7107588648796082
-0.7865316271781921
-0.850090742111206
-0.9003399014472961
-0.9363511204719543
-0.9573882222175598
-0.9629277586936951
-0.9526767134666443
-0.926600456237793
-0.8849431872367859
-0.8282575011253357
-0.7574297785758972
-0.6736881136894226
-0.5785991549491882
-0.4740307033061981
-0.3620871305465698
-0.24502256512641907
-0.125131756067276
-0.004645071923732758
0.1143670305609703
0.2300666868686676
0.34089532494544983
0.44558513164520264
0.5431616306304932
0.6329178214073181
0.7143763899803162
0.7872650027275085
0.851462185382843
0.8982413411140442
0.9391197562217712
0.9646661877632141
0.9751616716384888
0.971057116985321
0.9528897404670715
0.9212062954902649
0.8765029907226562
0.8191903829574585
0.7496100068092346
0.6680896878242493
0.5750555992126465
0.4711809456348419
0.35755226016044617
0.235801100730896
0.10816141217947006
-0.022581733763217926
-0.1532742977142334
-0.2806633412837982
-0.4016948640346527
-0.5137665867805481
-0.6148744225502014
-0.7036558985710144
-0.7793264985084534
-0.8415607213973999
-0.8903485536575317
-0.9258458614349365
-0.9482575058937073
-0.9577345252037048
-0.9543128609657288
-0.9378910660743713
-0.9082418084144592
-0.8650732636451721
-0.8081298470497131
-0.7373335957527161
-0.6529401540756226
-0.5556837320327759
-0.4468800723552704
-0.3284390866756439
-0.20279434323310852
-0.07275865226984024
0.05868031829595566
0.18855753540992737
0.3140981197357178
0.43283936381340027
0.542693018913269
0.6419633030891418
0.7293253540992737
0.8037872910499573
0.8646438121795654
0.9114282727241516
0.9438754320144653
0.961884081363678
0.9654930233955383
0.9548572301864624
0.9302298426628113
0.8919556140899658
0.8404600620269775
0.7762601971626282
0.6999872326850891
0.6124172806739807
0.5145268440246582
0.40753957629203796
0.2929641306400299
0.17260608077049255
0.04853362590074539
-0.0770045593380928
-0.20168280601501465
-0.32321324944496155
-0.43943479657173157
-0.5483641624450684
-0.6482366919517517
-0.7375031113624573
-0.8148327469825745
-0.87910395860672
-0.9294006824493408
-0.9649983048439026
-0.9853585362434387
-0.9901220202445984
-0.9791069626808167
-0.9523168206214905
-0.909967839717865
-0.8525155782699585
-0.7806978821754456
-0.6955732703208923
-0.598544716835022
-0.4913633167743683
-0.3760889768600464
-0.2550235986709595
-0.13060688972473145
-0.0052908435463905334
0.11857616156339645
0.23886671662330627
0.3537459373474121
0.46172040700912476
0.5616481304168701
0.6527178287506104
0.7344179749488831
0.8064775466918945
0.868822455406189
0.9065960645675659
0.9482791423797607
0.9750015139579773
0.9869147539138794
0.984287440776825
0.9674553275108337
0.9367601871490479
0.8925169706344604
0.8349992036819458
0.7644636631011963
0.6812257170677185
0.5857837796211243
0.47897258400917053
0.3621184229850769
0.23714521527290344
0.10657825320959091
-0.026569612324237823
-0.1590263545513153
-0.28755834698677063
-0.40925052762031555
-0.5217147469520569
-0.6231791377067566
-0.7124781012535095
-0.7889551520347595
-0.8523306846618652
-0.9025588631629944
-0.9396964907646179
-0.963798463344574
-0.9748349785804749
-0.9726473689079285
-0.9569488167762756
-0.9273566603660583
-0.8834850192070007
-0.8250654935836792
-0.7521044611930847
-0.665034830570221
-0.5648370981216431
-0.4530886709690094
-0.3319268822669983
-0.20393511652946472
-0.07195905596017838
0.06106584519147873
0.19228458404541016
0.31904247403144836
0.4389624297618866
0.5499908328056335
0.650411069393158
0.7388450503349304
0.8142414689064026
0.8758499026298523
0.9231911897659302
0.9560161232948303
0.9742650389671326
0.9780304431915283
0.9675164222717285
0.9430156350135803
0.9048895239830017
0.8535552620887756
0.789496660232544
0.7132759690284729
0.6255757808685303
0.5272454023361206
0.41936951875686646
0.3033229410648346
0.18082451820373535
0.053935520350933075
-0.07498732954263687
-0.20339718461036682
-0.32869577407836914
-0.44839009642601013
-0.5602062940597534
-0.6621753573417664
-0.7526677846908569
-0.8303877711296082
-0.8943443894386292
-0.9438179135322571
-0.9783077836036682
-0.9974945187568665
-1.0012071132659912
-0.9893997311592102
-0.9621461033821106
-0.9196575880050659
-0.8623152375221252
-0.7907204031944275
-0.7057517766952515
-0.6086172461509705
-0.500886082649231
-0.3844911754131317
-0.2616811990737915
-0.1349399983882904
-0.00685342401266098
0.12002579122781754
0.24331679940223694
0.36092936992645264
0.471134215593338
0.5725992321968079
0.6643807888031006
0.7458873391151428
0.8168200254440308
0.8771165013313293
0.9005059599876404
0.9429890513420105
0.9710187315940857
0.9845489859580994
0.9836201667785645
0.9683325886726379
0.9388189911842346
0.8952344059944153
0.8377622961997986
0.7666575312614441
0.6823331713676453
0.585476279258728
0.4771871566772461
0.35909172892570496
0.23338037729263306
0.10275404900312424
-0.029743291437625885
-0.16096451878547668
-0.28791990876197815
-0.40800046920776367
-0.5191091299057007
-0.6196969747543335
-0.7087185978889465
-0.7855380177497864
-0.8498037457466125
-0.9013314247131348
-0.9399979710578918
-0.9656566977500916
-0.9780760407447815
-0.9769162535667419
-0.961744487285614
-0.9320948719978333
-0.8875744938850403
-0.8280082941055298
-0.7535869479179382
-0.664997398853302
-0.5634943842887878
-0.4508867561817169
-0.32944294810295105
-0.2017405927181244
-0.07050660997629166
0.06152588874101639
0.19171738624572754
0.3175934851169586
0.4368828535079956
0.5475544333457947
0.647851288318634
0.7363151907920837
0.8118066191673279
0.8735112547874451
0.9209168553352356
0.9537776112556458
0.9720689654350281
0.9759315848350525
0.9656206965446472
0.9414715766906738
0.903865396976471
0.8532224297523499
0.7900034785270691
0.7147268056869507
0.6280055642127991
0.5305947661399841
0.4234636127948761
0.3078641891479492
0.1853959560394287
0.058047108352184296
-0.07182631641626358
-0.201572984457016
-0.32840248942375183
-0.44955816864967346
-0.5625073909759521
-0.6650804281234741
-0.7555443048477173
-0.832613468170166
-0.8954106569290161
-0.9433929324150085
-0.9762776494026184
-0.9939631819725037
-0.9964689612388611
-0.9839001297950745
-0.9564217925071716
-0.9142717719078064
-0.8577865958213806
-0.787463366985321
-0.7040144801139832
-0.6084490418434143
-0.5021244883537292
-0.38678044080734253
-0.2645289897918701
-0.13778719305992126
-0.009171076118946075
0.11865391582250595
0.24313127994537354
0.36195120215415955
0.4731631875038147
0.5752310752868652
0.6670445203781128
0.7478955388069153
0.8174116015434265
0.8754977583885193
0.8805979490280151
0.9238110184669495
0.9531611204147339
0.9683566093444824
0.9691770672798157
0.955477237701416
0.9271894693374634
0.8843451142311096
0.8271085023880005
0.7558304667472839
0.6711345314979553
0.5740136504173279
0.465913325548172
0.3487662374973297
0.2249547839164734
0.09719037264585495
-0.03166923671960831
-0.15882638096809387
-0.2817225158214569
-0.3981582224369049
-0.506352961063385
-0.6049404740333557
-0.6929120421409607
-0.7695487141609192
-0.8343282341957092
-0.8868425488471985
-0.9267283082008362
-0.9536033272743225
-0.9670341610908508
-0.9665279984474182
-0.9515724778175354
-0.9217054843902588
-0.876640260219574
-0.8164016008377075
-0.7414525747299194
-0.6527766585350037
-0.5518798232078552
-0.440708726644516
-0.3215211033821106
-0.1967349350452423
-0.06881410628557205
0.059810273349285126
0.1867738962173462
0.30980250239372253
0.42673176527023315
0.535550057888031
0.6344510912895203
0.7218908667564392
0.7966384291648865
0.8577993512153625
0.904812216758728
0.9374147653579712
0.9555947780609131
0.9595248103141785
0.9495033025741577
0.9259000420570374
0.8891286253929138
0.8396214842796326
0.7778376340866089
0.7042748332023621
0.6195079684257507
0.5242385268211365
0.4193557798862457
0.3060101866722107
0.18568870425224304
0.060259826481342316
-0.06800622493028641
-0.19649142026901245
-0.3223526179790497
-0.4427091181278229
-0.5548540949821472
-0.6564469933509827
-0.7456414103507996
-0.8211224675178528
-0.8820748329162598
-0.9280909895896912
-0.9590662121772766
-0.9750908017158508
-0.9763664603233337
-0.9631463885307312
-0.9357021450996399
-0.8943241834640503
-0.8393440842628479
-0.7711898684501648
-0.6904446482658386
-0.5979381799697876
-0.49481239914894104
-0.38258060812950134
-0.2631443440914154
-0.13876554369926453
-0.011970706284046173
0.11457300931215286
0.23822489380836487
0.35652807354927063
0.46734318137168884
0.5689326524734497
0.65999835729599
0.739668607711792
0.8074559569358826
0.8631841540336609
0.84760981798172
0.89134681224823
0.9218640923500061
0.9385915398597717
0.9410384297370911
0.9288185238838196
0.9016949534416199
0.8596301078796387
0.802850067615509
0.7319034934043884
0.6477336883544922
0.5517213940620422
0.44568225741386414
0.3318087160587311
0.21254733204841614
0.09043582528829575
-0.03205288201570511
-0.1526387631893158
-0.2693023979663849
-0.3803061544895172
-0.48417869210243225
-0.5796810984611511
-0.6657719016075134
-0.7415681481361389
-0.806304931640625
-0.8592932820320129
-0.899887204170227
-0.9274565577507019
-0.9413790106773376
-0.9410571455955505
-0.9259765148162842
-0.8957858085632324
-0.8504149317741394
-0.7901865839958191
-0.7158926725387573
-0.6288015842437744
-0.5305870771408081
-0.42320382595062256
-0.3087431490421295
-0.18933159112930298
-0.06707263737916946
0.055950939655303955
0.17766308784484863
0.2959897220134735
0.4088732600212097
0.5143298506736755
0.6105197072029114
0.695835292339325
0.7689622044563293
0.8289288878440857
0.8751092553138733
0.9071981906890869
0.9251630902290344
0.9291799068450928
0.9195641279220581
0.8967158198356628
0.8610774874687195
0.8131111264228821
0.7532934546470642
0.6821341514587402
0.6002042889595032
0.5081877708435059
0.40693387389183044
0.29752567410469055
0.1813470721244812
0.060136787593364716
-0.06398860365152359
-0.1885557472705841
-0.3108255863189697
-0.42795270681381226
-0.5371934771537781
-0.6361146569252014
-0.7227701544761658
-0.7957785725593567
-0.8543196320533752
-0.8980488777160645
-0.9269766807556152
-0.9413372874259949
-0.9414852261543274
-0.9278122782707214
-0.9007019400596619
-0.8605193495750427
-0.8076249957084656
-0.7424178123474121
-0.6654003858566284
-0.5772558450698853
-0.47893115878105164
-0.3717011511325836
-0.2572183907032013
-0.1375061273574829
-0.014903567731380463
0.1080409362912178
0.22871598601341248
0.3446066081523895
0.45344316959381104
0.553309977054596
0.6427139639854431
0.7205889821052551
0.7862825989723206
0.8394960761070251
0.8023483157157898
0.8462134599685669
0.87753826379776
0.8954712748527527
0.899254322052002
0.8882910013198853
0.8622221350669861
0.8210154175758362
0.7650424838066101
0.6951448321342468
0.6126570105552673
0.5193688869476318
0.41742753982543945
0.30917391180992126
0.1969590187072754
0.08298524469137192
-0.030799217522144318
-0.1427168846130371
-0.25132572650909424
-0.35534289479255676
-0.4535755217075348
-0.5448774099349976
-0.6281276941299438
-0.7022380828857422
-0.76615971326828
-0.8188930153846741
-0.859495222568512
-0.8870933055877686
-0.9009076952934265
-0.900296688079834
-0.8848286271095276
-0.854366660118103
-0.8091511726379395
-0.7498660683631897
-0.677631139755249
-0.5939339995384216
-0.5004940629005432
-0.3991272449493408
-0.29163315892219543
-0.17975935339927673
-0.06521878391504288
0.050252556800842285
0.1648576855659485
0.27671122550964355
0.3838776648044586
0.48442694544792175
0.5765284895896912
0.6585458517074585
0.7291138768196106
0.7871942520141602
0.8320875763893127
0.8634190559387207
0.8811013698577881
0.8852725028991699
0.8762330412864685
0.8543916344642639
0.8202143907546997
0.7742013931274414
0.7168708443641663
0.6487733721733093
0.5705126523971558
0.4827902019023895
0.38645049929618835
0.28253936767578125
0.17235562205314636
0.05750016123056412
-0.06009946018457413
-0.17819702625274658
-0.2942882478237152
-0.40572115778923035
-0.5098710060119629
-0.6043357253074646
-0.6871192455291748
-0.7567612528800964
-0.8123733401298523
-0.8535885810852051
-0.8804487586021423
-0.8932684063911438
-0.8925057649612427
-0.8786695003509521
-0.8522506356239319
-0.8137022256851196
-0.7634411454200745
-0.7018799185752869
-0.6294824481010437
-0.5468317866325378
-0.45470961928367615
-0.3541690409183502
-0.24659207463264465
-0.13371536135673523
-0.01760006695985794
0.0994289293885231
0.21490398049354553
0.32636258006095886
0.4314836263656616
0.5282220244407654
0.6148973107337952
0.6902398467063904
0.7533938884735107
0.8038977980613708
0.7456616759300232
0.7890294790267944
0.8205812573432922
0.8391961455345154
0.8438827991485596
0.8338825702667236
0.808783769607544
0.7686378359794617
0.7140480875968933
0.6462031006813049
0.5668407082557678
0.47811293601989746
0.38237786293029785
0.2819715738296509
0.17899960279464722
0.07520800083875656
-0.028026022017002106
-0.12963199615478516
-0.22870773077011108
-0.32438206672668457
-0.4157090485095978
-0.5016148686408997
-0.5808911323547363
-0.6522435545921326
-0.7143394351005554
-0.7658721208572388
-0.8056162595748901
-0.8324844241142273
-0.845588743686676
-0.8443120718002319
-0.8283864855766296
-0.7979627251625061
-0.7536476254463196
-0.6964852213859558
-0.6278636455535889
-0.5493741631507874
-0.46264979243278503
-0.3692456781864166
-0.2705988585948944
-0.16806209087371826
-0.0629788264632225
0.04323192685842514
0.14902371168136597
0.2527080178260803
0.35249289870262146
0.44655314087867737
0.5331240892410278
0.6105945706367493
0.6775893568992615
0.733022153377533
0.7761225700378418
0.8064289093017578
0.8237632513046265
0.8281862139701843
0.819945752620697
0.799426257610321
0.7671034336090088
0.7235130667686462
0.6692317128181458
0.6048757433891296
0.5311124920845032
0.4486928880214691
0.35848769545555115
0.26152247190475464
0.15902483463287354
0.05245586484670639
-0.056468941271305084
-0.16578316688537598
-0.2733018696308136
-0.37669363617897034
-0.4735995829105377
-0.5617800951004028
-0.6392865777015686
-0.7046061158180237
-0.7567468881607056
-0.7952415347099304
-0.8200742602348328
-0.831555187702179
-0.830189049243927
-0.816559374332428
-0.7912537455558777
-0.7548155188560486
-0.7077359557151794
-0.6504742503166199
-0.5834944248199463
-0.507323145866394
-0.4226176142692566
-0.33023446798324585
-0.23129120469093323
-0.12720820307731628
-0.019717253744602203
0.08917289227247238
0.19724583625793457
0.30219516158103943
0.4017505645751953
0.49380430579185486
0.5765318274497986
0.6484612822532654
0.7085233926773071
0.7560545802116394
0.6784275770187378
0.7204301953315735
0.7514028549194336
0.7699996829032898
0.7750505805015564
0.7657100558280945
0.7415957450866699
0.7029239535331726
0.6505796313285828
0.5861074924468994
0.5115816593170166
0.4293809235095978
0.34190765023231506
0.25132620334625244
0.15937650203704834
0.06731333583593369
-0.02403590828180313
-0.11412639170885086
-0.2025105059146881
-0.2886600196361542
-0.3718418478965759
-0.4510573446750641
-0.5250381231307983
-0.5923236012458801
-0.6513422727584839
-0.7005248069763184
-0.7384122014045715
-0.7637572884559631
-0.775627076625824
-0.7734954953193665
-0.7573188543319702
-0.7275647521018982
-0.6851895451545715
-0.631523609161377
-0.5681093335151672
-0.49650540947914124
-0.41814419627189636
-0.3342619836330414
-0.24593234062194824
-0.15415340662002563
-0.05995520204305649
0.03551385551691055
0.13093668222427368
0.22483503818511963
0.3156035244464874
0.4015829861164093
0.4811410903930664
0.5527542233467102
0.6150835752487183
0.6670262217521667
0.7077494859695435
0.7366970181465149
0.7535791993141174
0.7583463191986084
0.7511564493179321
0.7323363423347473
0.702345073223114
0.6617392897605896
0.6111559271812439
0.5512884855270386
0.48289188742637634
0.4067894220352173
0.3238927721977234
0.23522359132766724
0.14194148778915405
0.04536319524049759
-0.053023822605609894
-0.15155914425849915
-0.2484261691570282
-0.3416910469532013
-0.4293610155582428
-0.5094850659370422
-0.5802720189094543
-0.6402279734611511
-0.6882690191268921
-0.723783016204834
-0.7466158270835876
-0.756988525390625
-0.7553758025169373
-0.7423893809318542
-0.7186800837516785
-0.6848739981651306
-0.6415467262268066
-0.5892224907875061
-0.5283962488174438
-0.45957669615745544
-0.38333332538604736
-0.30036023259162903
-0.2115289568901062
-0.11794611066579819
-0.020980380475521088
0.07773008197546005
0.17630603909492493
0.2726990580558777
0.36478710174560547
0.45049265027046204
0.5279070734977722
0.595397412776947
0.6516842246055603
0.6958919763565063
0.6015550494194031
0.6410947442054749
0.6704819798469543
0.6882184147834778
0.6930447816848755
0.6841172575950623
0.6611725091934204
0.6246506571769714
0.575726330280304
0.5162266492843628
0.44841909408569336
0.37471792101860046
0.29737648367881775
0.21824443340301514
0.13863930106163025