# vtk DataFile Version 3.0
2D PINN Solution
ASCII
DATASET STRUCTURED_GRID
DIMENSIONS 100 100 1
POINTS 10000 float
-1.0 -1.0 0.0
-0.9797979797979798 -1.0 0.0
-0.9595959595959596 -1.0 0.0
-0.9393939393939394 -1.0 0.0
-0.9191919191919192 -1.0 0.0
-0.898989898989899 -1.0 0.0
-0.8787878787878788 -1.0 0.0
-0.8585858585858586 -1.0 0.0
-0.8383838383838383 -1.0 0.0
-0.8181818181818181 -1.0 0.0
-0.797979797979798 -1.0 0.0
-0.7777777777777778 -1.0 0.0
-0.7575757575757576 -1.0 0.0
-0.7373737373737373 -1.0 0.0
-0.7171717171717171 -1.0 0.0
-0.696969696969697 -1.0 0.0
-0.6767676767676767 -1.0 0.0
-0.6565656565656566 -1.0 0.0
-0.6363636363636364 -1.0 0.0
-0.6161616161616161 -1.0 0.0
-0.5959595959595959 -1.0 0.0
-0.5757575757575757 -1.0 0.0
-0.5555555555555556 -1.0 0.0
-0.5353535353535352 -1.0 0.0
-0.5151515151515151 -1.0 0.0
-0.4949494949494949 -1.0 0.0
-0.4747474747474747 -1.0 0.0
-0.4545454545454545 -1.0 0.0
-0.43434343434343425 -1.0 0.0
-0.41414141414141414 -1.0 0.0
-0.3939393939393939 -1.0 0.0
-0.3737373737373737 -1.0 0.0
-0.3535353535353535 -1.0 0.0
-0.33333333333333326 -1.0 0.0
-0.31313131313131304 -1.0 0.0
-0.2929292929292928 -1.0 0.0
-0.2727272727272727 -1.0 0.0
-0.2525252525252525 -1.0 0.0
-0.23232323232323226 -1.0 0.0
-0.21212121212121204 -1.0 0.0
-0.19191919191919182 -1.0 0.0
-0.1717171717171716 -1.0 0.0
-0.1515151515151515 -1.0 0.0
-0.13131313131313127 -1.0 0.0
-0.11111111111111105 -1.0 0.0
-0.09090909090909083 -1.0 0.0
-0.07070707070707061 -1.0 0.0
-0.050505050505050386 -1.0 0.0
-0.030303030303030276 -1.0 0.0
-0.010101010101010055 -1.0 0.0
0.010101010101010166 -1.0 0.0
0.030303030303030498 -1.0 0.0
0.05050505050505061 -1.0 0.0
0.07070707070707072 -1.0 0.0
0.09090909090909105 -1.0 0.0
0.11111111111111116 -1.0 0.0
0.1313131313131315 -1.0 0.0
0.1515151515151516 -1.0 0.0
0.1717171717171717 -1.0 0.0
0.19191919191919204 -1.0 0.0
0.21212121212121215 -1.0 0.0
0.2323232323232325 -1.0 0.0
0.2525252525252526 -1.0 0.0
0.27272727272727293 -1.0 0.0
0.29292929292929304 -1.0 0.0
0.31313131313131315 -1.0 0.0
0.3333333333333335 -1.0 0.0
0.3535353535353536 -1.0 0.0
0.3737373737373739 -1.0 0.0
0.39393939393939403 -1.0 0.0
0.41414141414141437 -1.0 0.0
0.4343434343434345 -1.0 0.0
0.4545454545454546 -1.0 0.0
0.4747474747474749 -1.0 0.0
0.49494949494949503 -1.0 0.0
0.5151515151515154 -1.0 0.0
0.5353535353535355 -1.0 0.0
0.5555555555555556 -1.0 0.0
0.5757575757575759 -1.0 0.0
0.595959595959596 -1.0 0.0
0.6161616161616164 -1.0 0.0
0.6363636363636365 -1.0 0.0
0.6565656565656568 -1.0 0.0
0.6767676767676769 -1.0 0.0
0.696969696969697 -1.0 0.0
0.7171717171717173 -1.0 0.0
0.7373737373737375 -1.0 0.0
0.7575757575757578 -1.0 0.0
0.7777777777777779 -1.0 0.0
0.7979797979797982 -1.0 0.0
0.8181818181818183 -1.0 0.0
0.8383838383838385 -1.0 0.0
0.8585858585858588 -1.0 0.0
0.8787878787878789 -1.0 0.0
0.8989898989898992 -1.0 0.0
0.9191919191919193 -1.0 0.0
0.9393939393939394 -1.0 0.0
0.9595959595959598 -1.0 0.0
0.9797979797979799 -1.0 0.0
1.0 -1.0 0.0
-1.0 -0.9797979797979798 0.0
-0.9797979797979798 -0.9797979797979798 0.0
-0.9595959595959596 -0.9797979797979798 0.0
-0.9393939393939394 -0.9797979797979798 0.0
-0.9191919191919192 -0.9797979797979798 0.0
-0.898989898989899 -0.9797979797979798 0.0
-0.8787878787878788 -0.9797979797979798 0.0
-0.8585858585858586 -0.9797979797979798 0.0
-0.8383838383838383 -0.9797979797979798 0.0
-0.8181818181818181 -0.9797979797979798 0.0
-0.797979797979798 -0.9797979797979798 0.0
-0.7777777777777778 -0.9797979797979798 0.0
-0.7575757575757576 -0.9797979797979798 0.0
-0.7373737373737373 -0.9797979797979798 0.0
-0.7171717171717171 -0.9797979797979798 0.0
-0.696969696969697 -0.9797979797979798 0.0
-0.6767676767676767 -0.9797979797979798 0.0
-0.6565656565656566 -0.9797979797979798 0.0
-0.6363636363636364 -0.9797979797979798 0.0
-0.6161616161616161 -0.9797979797979798 0.0
-0.5959595959595959 -0.9797979797979798 0.0
-0.5757575757575757 -0.9797979797979798 0.0
-0.5555555555555556 -0.9797979797979798 0.0
-0.5353535353535352 -0.9797979797979798 0.0
-0.5151515151515151 -0.9797979797979798 0.0
-0.4949494949494949 -0.9797979797979798 0.0
-0.4747474747474747 -0.9797979797979798 0.0
-0.4545454545454545 -0.9797979797979798 0.0
-0.43434343434343425 -0.9797979797979798 0.0
-0.41414141414141414 -0.9797979797979798 0.0
-0.3939393939393939 -0.9797979797979798 0.0
-0.3737373737373737 -0.9797979797979798 0.0
-0.3535353535353535 -0.9797979797979798 0.0
-0.33333333333333326 -0.9797979797979798 0.0
-0.31313131313131304 -0.9797979797979798 0.0
-0.2929292929292928 -0.9797979797979798 0.0
-0.2727272727272727 -0.9797979797979798 0.0
-0.2525252525252525 -0.9797979797979798 0.0
-0.23232323232323226 -0.9797979797979798 0.0
-0.21212121212121204 -0.9797979797979798 0.0
-0.19191919191919182 -0.9797979797979798 0.0
-0.1717171717171716 -0.9797979797979798 0.0
-0.1515151515151515 -0.9797979797979798 0.0
-0.13131313131313127 -0.9797979797979798 0.0
-0.11111111111111105 -0.9797979797979798 0.0
-0.09090909090909083 -0.9797979797979798 0.0
-0.07070707070707061 -0.9797979797979798 0.0
-0.050505050505050386 -0.9797979797979798 0.0
-0.030303030303030276 -0.9797979797979798 0.0
-0.010101010101010055 -0.9797979797979798 0.0
0.010101010101010166 -0.9797979797979798 0.0
0.030303030303030498 -0.9797979797979798 0.0
0.05050505050505061 -0.9797979797979798 0.0
0.07070707070707072 -0.9797979797979798 0.0
0.09090909090909105 -0.9797979797979798 0.0
0.11111111111111116 -0.9797979797979798 0.0
0.1313131313131315 -0.9797979797979798 0.0
0.1515151515151516 -0.9797979797979798 0.0
0.1717171717171717 -0.9797979797979798 0.0
0.19191919191919204 -0.9797979797979798 0.0
0.21212121212121215 -0.9797979797979798 0.0
0.2323232323232325 -0.9797979797979798 0.0
0.2525252525252526 -0.9797979797979798 0.0
0.27272727272727293 -0.9797979797979798 0.0
0.29292929292929304 -0.9797979797979798 0.0
0.31313131313131315 -0.9797979797979798 0.0
0.3333333333333335 -0.9797979797979798 0.0
0.3535353535353536 -0.9797979797979798 0.0
0.3737373737373739 -0.9797979797979798 0.0
0.39393939393939403 -0.9797979797979798 0.0
0.41414141414141437 -0.9797979797979798 0.0
0.4343434343434345 -0.9797979797979798 0.0
0.4545454545454546 -0.9797979797979798 0.0
0.4747474747474749 -0.9797979797979798 0.0
0.49494949494949503 -0.9797979797979798 0.0
0.5151515151515154 -0.9797979797979798 0.0
0.5353535353535355 -0.9797979797979798 0.0
0.5555555555555556 -0.9797979797979798 0.0
0.5757575757575759 -0.9797979797979798 0.0
0.595959595959596 -0.9797979797979798 0.0
0.6161616161616164 -0.9797979797979798 0.0
0.6363636363636365 -0.9797979797979798 0.0
0.6565656565656568 -0.9797979797979798 0.0
0.6767676767676769 -0.9797979797979798 0.0
0.696969696969697 -0.9797979797979798 0.0
0.7171717171717173 -0.9797979797979798 0.0
0.7373737373737375 -0.9797979797979798 0.0
0.7575757575757578 -0.9797979797979798 0.0
0.7777777777777779 -0.9797979797979798 0.0
0.7979797979797982 -0.9797979797979798 0.0
0.8181818181818183 -0.9797979797979798 0.0
0.8383838383838385 -0.9797979797979798 0.0
0.8585858585858588 -0.9797979797979798 0.0
0.8787878787878789 -0.9797979797979798 0.0
0.8989898989898992 -0.9797979797979798 0.0
0.9191919191919193 -0.9797979797979798 0.0
0.9393939393939394 -0.9797979797979798 0.0
0.9595959595959598 -0.9797979797979798 0.0
0.9797979797979799 -0.9797979797979798 0.0
1.0 -0.9797979797979798 0.0
-1.0 -0.9595959595959596 0.0
-0.9797979797979798 -0.9595959595959596 0.0
-0.9595959595959596 -0.9595959595959596 0.0
-0.9393939393939394 -0.9595959595959596 0.0
-0.9191919191919192 -0.9595959595959596 0.0
-0.898989898989899 -0.9595959595959596 0.0
-0.8787878787878788 -0.9595959595959596 0.0
-0.8585858585858586 -0.9595959595959596 0.0
-0.8383838383838383 -0.9595959595959596 0.0
-0.8181818181818181 -0.9595959595959596 0.0
-0.797979797979798 -0.9595959595959596 0.0
-0.7777777777777778 -0.9595959595959596 0.0
-0.7575757575757576 -0.9595959595959596 0.0
-0.7373737373737373 -0.9595959595959596 0.0
-0.7171717171717171 -0.9595959595959596 0.0
-0.696969696969697 -0.9595959595959596 0.0
-0.6767676767676767 -0.9595959595959596 0.0
-0.6565656565656566 -0.9595959595959596 0.0
-0.6363636363636364 -0.9595959595959596 0.0
-0.6161616161616161 -0.9595959595959596 0.0
-0.5959595959595959 -0.9595959595959596 0.0
-0.5757575757575757 -0.9595959595959596 0.0
-0.5555555555555556 -0.9595959595959596 0.0
-0.5353535353535352 -0.9595959595959596 0.0
-0.5151515151515151 -0.9595959595959596 0.0
-0.4949494949494949 -0.9595959595959596 0.0
-0.4747474747474747 -0.9595959595959596 0.0
-0.4545454545454545 -0.9595959595959596 0.0
-0.43434343434343425 -0.9595959595959596 0.0
-0.41414141414141414 -0.9595959595959596 0.0
-0.3939393939393939 -0.9595959595959596 0.0
-0.3737373737373737 -0.9595959595959596 0.0
-0.3535353535353535 -0.9595959595959596 0.0
-0.33333333333333326 -0.9595959595959596 0.0
-0.31313131313131304 -0.9595959595959596 0.0
-0.2929292929292928 -0.9595959595959596 0.0
-0.2727272727272727 -0.9595959595959596 0.0
-0.2525252525252525 -0.9595959595959596 0.0
-0.23232323232323226 -0.9595959595959596 0.0
-0.21212121212121204 -0.9595959595959596 0.0
-0.19191919191919182 -0.9595959595959596 0.0
-0.1717171717171716 -0.9595959595959596 0.0
-0.1515151515151515 -0.9595959595959596 0.0
-0.13131313131313127 -0.9595959595959596 0.0
-0.11111111111111105 -0.9595959595959596 0.0
-0.09090909090909083 -0.9595959595959596 0.0
-0.07070707070707061 -0.9595959595959596 0.0
-0.050505050505050386 -0.9595959595959596 0.0
-0.030303030303030276 -0.9595959595959596 0.0
-0.010101010101010055 -0.9595959595959596 0.0
0.010101010101010166 -0.9595959595959596 0.0
0.030303030303030498 -0.9595959595959596 0.0
0.05050505050505061 -0.9595959595959596 0.0
0.07070707070707072 -0.9595959595959596 0.0
0.09090909090909105 -0.9595959595959596 0.0
0.11111111111111116 -0.9595959595959596 0.0
0.1313131313131315 -0.9595959595959596 0.0
0.1515151515151516 -0.9595959595959596 0.0
0.1717171717171717 -0.9595959595959596 0.0
0.19191919191919204 -0.9595959595959596 0.0
0.21212121212121215 -0.9595959595959596 0.0
[...]
POINT_DATA 10000
SCALARS u float 1
LOOKUP_TABLE default
0.884103000164032
0.9088851809501648
0.9227182865142822
0.9245995879173279
0.9135041236877441
0.8884182572364807
0.8483862280845642
0.7926107048988342
0.7205875515937805
0.6322788596153259
0.5283089876174927
0.41014254093170166
0.2801768481731415
0.1417103409767151
-0.0012563243508338928
-0.14436596632003784
-0.28332966566085815
-0.4143202602863312
-0.5342501997947693
-0.640901505947113
-0.7328950762748718
-0.8095642924308777
-0.870772659778595
-0.9167352318763733
-0.9478574395179749
-0.9646161198616028
-0.9674813151359558
-0.9568683505058289
-0.9331291317939758
-0.8965582251548767
-0.8474287986755371
-0.7860398888587952
-0.7127813100814819
-0.6282033324241638
-0.5330933928489685
-0.4285315275192261
-0.3159366548061371
-0.19707068800926208
-0.07400045543909073
0.05097723752260208
0.17545145750045776
0.29701435565948486
0.4133881628513336
0.5225172638893127
0.6226288080215454
0.7122552990913391
0.7902256846427917
0.8556330800056458
0.9077842235565186
0.9461506009101868
0.9703236222267151
0.9799785017967224
0.9748626351356506
0.9548026919364929
0.9197354912757874
0.8697658181190491
0.8052318692207336
0.7267807722091675
0.6354266405105591
0.5325911045074463
0.42009133100509644
0.3000870645046234
0.1749824583530426
0.04729848355054855
-0.08045763522386551
-0.20590555667877197
-0.32687607407569885
-0.4414495527744293
-0.5479614734649658
-0.6449922919273376
-0.7313349843025208
-0.805971622467041
-0.8680458068847656
-0.9168437719345093
-0.9517752528190613
-0.9723687767982483
-0.9782659411430359
-0.9692254662513733
-0.9451364874839783
-0.9060482382774353
-0.8522001504898071
-0.7840728759765625
-0.7024310231208801
-0.6083703637123108
-0.5033485889434814
-0.3891834616661072
-0.26802748441696167
-0.14229613542556763
-0.014560647308826447
0.11257608979940414
0.23662394285202026
0.35531893372535706
0.4667252004146576
0.5692899823188782
0.661863386631012
0.7436809539794922
0.8143302202224731
0.8736868500709534
0.9218596816062927
0.9591267704963684
0.9095838665962219
0.9373466968536377
0.9535245299339294
0.9569231271743774
0.946337103843689
0.9205823540687561
0.8785800933837891
0.819480299949646
0.7428324818611145
0.6488016843795776
0.5383698344230652
0.41349947452545166
0.27717074751853943
0.13324281573295593
-0.013852961361408234
-0.15954840183258057
-0.29959574341773987
-0.4304109513759613
-0.549288272857666
-0.6544123291969299
-0.744768500328064
-0.8199630379676819
-0.8800328373908997
-0.9252724647521973
-0.9560970664024353
-0.9729425311088562
-0.9762062430381775
-0.966216504573822
-0.9432274699211121
-0.9074385166168213
-0.8590322136878967
-0.7982223033905029
-0.7253227829933167
-0.6408194899559021
-0.5454422831535339
-0.4402317702770233
-0.3265796899795532
-0.20623904466629028
-0.08129066973924637
0.04593687504529953
0.1729779839515686
0.29735830426216125
0.41672420501708984
0.5289394855499268
0.6321483254432678
0.7248005270957947
0.8056386709213257
0.8736656308174133
0.9280925989151001
0.9682957530021667
0.9937725067138672
1.0041128396987915
0.998996913433075
0.9782142639160156
0.9417084455490112
0.8896396160125732
0.822465717792511
0.7410011291503906
0.6464707255363464
0.5405047535896301
0.4251009225845337
0.30253875255584717
0.17526361346244812
0.04576981067657471
-0.08350666612386703
-0.21027514338493347
-0.3324432671070099
-0.4481460154056549
-0.5557522773742676
-0.6538540720939636
-0.7412456274032593
-0.8169041872024536
-0.879967212677002
-0.9297112226486206
-0.9655377268791199
-0.986958920955658
-0.9935917258262634
-0.98516446352005
-0.9615218043327332
-0.9226541519165039
-0.8687323331832886
-0.8001570105552673
-0.7176112532615662
-0.6221196055412292
-0.5150901079177856
-0.39833781123161316
-0.2740659713745117
-0.14480367302894592
-0.013298608362674713
0.11762066930532455
0.2452182173728943
0.3669878840446472
0.4807874858379364
0.5849125385284424
0.6781277060508728
0.759647786617279
0.8290939927101135
0.8864225745201111
0.9318441152572632
0.965753972530365
0.9215001463890076
0.9515529870986938
0.9693686366081238
0.9735796451568604
0.9628235697746277
0.9358147382736206
0.8914424777030945
0.828934907913208
0.7480596899986267
0.6493424773216248
0.5342577695846558
0.4053190052509308
0.2660124897956848
0.12055253237485886
-0.026520319283008575
-0.17078861594200134
-0.30835413932800293
-0.4361023008823395
-0.5517857074737549
-0.6539688110351562
-0.7418949007987976
-0.8152971863746643
-0.8742408156394958
-0.9189714193344116
-0.9498125910758972
-0.9670857787132263
-0.9710733294487
-0.9619957804679871
-0.940019428730011
-0.9052723050117493
-0.8578876852989197
-0.7980571389198303
-0.7260883450508118
-0.6424764394760132
-0.5479675531387329
-0.44361022114753723
-0.3307892978191376
-0.21122047305107117
-0.08691912144422531
0.03986979275941849
0.166772723197937
0.2913914620876312
0.41141507029533386
0.5247048139572144
0.6293595433235168
0.723738431930542
0.8064634203910828
0.8763931393623352
0.9325874447822571
0.9742705821990967
1.0008018016815186
1.0116596221923828
1.0064527988433838
0.9849540591239929
0.947157084941864
0.8933490514755249
0.8241811394691467
0.740715503692627
0.6444344520568848
0.5371935963630676
0.42113351821899414
0.29856348037719727
0.17184650897979736
0.04330529272556305
-0.08483568578958511
-0.21048703789710999
-0.33170759677886963
-0.44671836495399475
-0.5539098978042603
-0.651849627494812
-0.7392831444740295
-0.8151309490203857
-0.8784778714179993
-0.9285614490509033
-0.9647529721260071
-0.9865509867668152
-0.993565022945404
-0.9855204224586487
-0.9622599482536316
-0.9237663149833679
-0.8701945543289185
-0.801914393901825
-0.7195658087730408
-0.6241205930709839
-0.5169304013252258
-0.39976146817207336
-0.27479609847068787
-0.14457818865776062
-0.011916406452655792
0.1202593669295311
0.24906805157661438
0.37184861302375793
0.4863075315952301
0.5906093120574951
0.6834304928779602
0.7639402747154236
0.8317586779594421
0.8868730664253235
0.9295539259910583
0.9602691531181335
0.9190674424171448
0.9505005478858948
0.9690378904342651
0.9731672406196594
0.961434543132782
0.9325414299964905
0.885482668876648
0.8197333216667175
0.7354516386985779
0.6336768269538879
0.5164410471916199
0.386750727891922
0.24840009212493896
0.10563186556100845
-0.03727135807275772
-0.1763770580291748
-0.3083808720111847
-0.43073078989982605
-0.5416267514228821
-0.6399160623550415
-0.7249528765678406
-0.7964580059051514
-0.8543873429298401
-0.8988323211669922
-0.9299452900886536
-0.9478856921195984
-0.952795684337616
-0.9447851777076721
-0.923942506313324
-0.8903625011444092
-0.8441770672798157
-0.7856122255325317
-0.715042769908905
-0.6330447793006897
-0.5404423475265503
-0.43833890557289124
-0.328123539686203
-0.2114517092704773
-0.090205617249012
0.033559225499629974
0.1576867401599884
0.2799864709377289
0.3983026146888733
0.5105771422386169
0.6149013638496399
0.7095499634742737
0.7929974794387817
0.8639177083969116
0.9211682677268982
0.9637795686721802
0.9909406900405884
1.0020062923431396
0.9965237975120544
0.9742855429649353
0.9353963732719421
0.8803397417068481
0.8100325465202332
0.7258341312408447
0.629494845867157
0.5230608582496643
0.40873363614082336
0.2887413501739502
0.16524283587932587
0.04027187079191208
-0.0842568650841713
-0.20652776956558228
-0.32479992508888245
-0.4373972713947296
-0.5427258014678955
-0.6392984986305237
-0.7257685661315918
-0.8009558320045471
-0.8638520836830139
-0.913624107837677
-0.9496025443077087
-0.9712685942649841
-0.9782446026802063
-0.9702833294868469
-0.9472711682319641
-0.9092361330986023
-0.8563702702522278
-0.7890697121620178
-0.7079740166664124
-0.6140291094779968
-0.5085287690162659
-0.39316362142562866
-0.27002137899398804
-0.14155954122543335
-0.010521776974201202
0.12019329518079758
0.24769321084022522
0.3692649006843567
0.4825325906276703
0.5855680704116821
0.6769534945487976
0.7557842135429382
0.8216281533241272
0.8744499683380127
0.9145214557647705
0.9423300623893738
0.9017199873924255
0.9334278702735901
0.9516051411628723
0.9546492099761963
0.9411044716835022
0.9097957015037537
0.8599902391433716
0.7915857434272766
0.7052900791168213
0.602731466293335
0.4864565432071686
0.35977622866630554
0.2264847755432129
0.09049587696790695
-0.044501371681690216
-0.17529621720314026
-0.29928675293922424
-0.4144844710826874
-0.5194524526596069
-0.6131914854049683
-0.695039689540863
-0.7645763754844666
-0.8215526938438416
-0.8658274412155151
-0.8973289132118225
-0.9160258173942566
-0.9219071865081787
-0.9149814248085022
-0.8952862620353699
-0.8629175424575806
-0.8180580139160156
-0.761030375957489
-0.6923337578773499
-0.6126824021339417
-0.5230235457420349
-0.42453470826148987
-0.3186051547527313
-0.20679441094398499
-0.09079677611589432
0.027603156864643097
0.1465541124343872
0.26416319608688354
0.3785156011581421
0.4877018928527832
0.5898507237434387
0.6831696629524231
0.7659791111946106
0.8367472887039185
0.8941038846969604
0.9368615746498108
0.9640295505523682
0.9748477339744568
0.9688354134559631
0.9458573460578918
0.9061930179595947
0.8505915403366089
0.7802780866622925
0.6969103813171387
0.6024642586708069
0.49907878041267395
0.388901025056839
0.2739604413509369
0.15610948204994202
0.0370304211974144
-0.08171426504850388
-0.1986079216003418
-0.31212320923805237
-0.4206973910331726
-0.522750198841095
-0.6167314052581787
-0.7011839747428894
-0.7747951149940491
-0.8364381790161133
-0.8851868510246277
-0.9203216433525085
-0.9413118958473206
-0.9478092789649963
-0.9396248459815979
-0.9167287349700928
-0.8792394399642944
-0.8274420499801636
-0.7618029117584229
-0.6830045580863953
-0.5919893383979797
-0.49000105261802673
-0.3786252439022064
-0.2598024308681488
-0.1358080804347992
-0.009200789034366608
0.11728685349225998
0.24088701605796814
0.3589536249637604
0.4691120684146881
0.5693857073783875
0.6582697033882141
0.7347573041915894
0.798313558101654
0.8488203883171082
0.886483371257782
0.9117527604103088
0.8691089749336243
0.8998335003852844
0.9164711236953735
0.9174159169197083
0.9013423323631287
0.867358386516571
0.8151771426200867
0.745273768901825
0.6589813828468323
0.5584797263145447
0.44665297865867615
0.3268267810344696
0.20245066285133362
0.07679416984319687
-0.047261543571949005
-0.16732940077781677
-0.28150150179862976
-0.38827815651893616
-0.48647603392601013
-0.5751399397850037
-0.6534909605979919
-0.7208870053291321
-0.7768078446388245
-0.8208358883857727
-0.8526495695114136
-0.8720099329948425
-0.87875896692276
-0.8728199005126953
-0.8542125225067139
-0.8230754733085632
-0.7796960473060608
-0.7245435118675232
-0.658290684223175
-0.5818207859992981
-0.4962122142314911
-0.4027075171470642
-0.302661269903183
-0.19749495387077332
-0.08866310864686966
0.022362656891345978
0.134080171585083
0.24493271112442017
0.35328689217567444
0.4574225842952728
0.5555456280708313
0.6458259224891663
0.7264531850814819
0.7956964373588562
0.8519620895385742
0.8938519358634949
0.9202166199684143
0.9302186369895935
0.9234039783477783
0.899777352809906
0.8598572611808777
0.8046936988830566
0.7358182072639465
0.6551275253295898
0.5647104978561401
0.46666327118873596
0.3629424273967743
0.2552764415740967
0.14515675604343414
0.03389831632375717
-0.07727024704217911
-0.18710538744926453
-0.2942788600921631
-0.39733701944351196
-0.49472764134407043
-0.5848494172096252
-0.6661387085914612
-0.7371557354927063
-0.7966465353965759
-0.8435879945755005
-0.8772050142288208
-0.8969660997390747
-0.9025657176971436
-0.8939030766487122
-0.8710616827011108
-0.83428955078125
-0.7839951515197754
-0.7207531332969666
-0.6453135013580322
-0.5586341023445129
-0.461909681558609
-0.35660210251808167
-0.2444579005241394
-0.12750297784805298
-0.0080074742436409
0.1115804985165596
0.22874581813812256
0.34102174639701843
0.44613170623779297
0.5421072244644165
0.6273772716522217
0.7008163332939148
0.7617473006248474
0.8099053502082825
0.8453698754310608
0.8684930205345154
0.8211145997047424
0.8495113849639893
0.8634304404258728
0.8613911271095276
0.84235018491745
0.8058696389198303
0.7522550225257874
0.6826304197311401
0.5989115834236145
0.5036541223526001
0.3997941315174103
0.29034319519996643
0.17811733484268188
0.06555315107107162
-0.045355893671512604
-0.15301185846328735
-0.25611719489097595
-0.35355010628700256
-0.4442862570285797
-0.5273374319076538
-0.6017532348632812
-0.6666339039802551
-0.7211601734161377
-0.7646257281303406
-0.7964475750923157
-0.8161877989768982
-0.8235540986061096
-0.8184131979942322
-0.8008041977882385
-0.7709563374519348
-0.7293071150779724
-0.6765127182006836
-0.6134394407272339
-0.5411379933357239
-0.4607956111431122
-0.37366655468940735
-0.28101837635040283
-0.18408232927322388
-0.08403744548559189
0.01797177642583847
0.1207871064543724
0.22317922115325928
0.3237890303134918
0.42109379172325134
0.5134017467498779
0.5988839268684387
0.6756402254104614
0.7417835593223572
0.7955418229103088
0.8353513479232788
0.8599606156349182
0.868522584438324
0.8606882691383362
0.8366715908050537
0.7972722053527832
0.7438368797302246
0.6781315207481384
0.6021627187728882
0.5179734230041504
0.42745837569236755
0.3322625160217285
0.23374488949775696
0.13303112983703613
0.03110583871603012
-0.07107781618833542
-0.17249232530593872
-0.2719663977622986
-0.36814528703689575
-0.459516316652298
-0.5444588661193848
-0.6213434934616089
-0.6886296272277832
-0.7449612021446228
-0.789233386516571
-0.8206285238265991
-0.8386253714561462
-0.8429781794548035
-0.8336889147758484
-0.8109742403030396
-0.7752288579940796
-0.7270010709762573
-0.6669804453849792
-0.5959978699684143
-0.5150271058082581
-0.4252104163169861
-0.3278729021549225
-0.2245384156703949
-0.11693134158849716
-0.006967581808567047
0.103280209004879
0.21164682507514954
0.31595247983932495
0.4141094982624054
0.5042284727096558
0.5847079157829285
0.6543098092079163
0.7121890187263489
0.7578896284103394
0.7913114428520203
0.812647819519043
0.7578761577606201
0.782611072063446
0.7927630543708801
0.7871319651603699
0.7651267051696777
0.7268981337547302
0.6734081506729126
0.6063820719718933
0.5281365513801575
0.4413197338581085
0.3485959470272064
0.25238683819770813
0.15469974279403687
0.05709146708250046
-0.03926778584718704
-0.13345983624458313
-0.22466710209846497
-0.3120451271533966
-0.39465829730033875
-0.47145137190818787
-0.541292130947113
-0.6030240654945374
-0.6555435061454773
-0.6978604793548584
-0.7291530966758728
-0.7488003373146057
-0.7564084529876709
-0.7518231272697449
-0.7351451516151428
-0.7067393660545349
-0.6672265529632568
-0.6174655556678772
-0.5585063695907593
-0.4915311634540558
-0.4177665412425995
-0.33841127157211304
-0.2545737624168396
-0.16724514961242676
-0.07731258124113083
0.014389388263225555
0.1070094034075737
0.19959568977355957
0.29102185368537903
0.3799384534358978
0.46476298570632935
0.5437010526657104
0.6148211359977722
0.6761549115180969
0.7258310914039612
0.7622142434120178
0.7840456366539001
0.7905685901641846
0.7816265821456909
0.7576987147331238
0.7198696732521057
0.6697120666503906
0.6090930700302124
0.5399492383003235
0.46409428119659424
0.3830759823322296
0.2981402277946472
0.21025988459587097
0.12022987753152847
0.02877143770456314
-0.06335503607988358
-0.15526533126831055
-0.24589097499847412
-0.3339579701423645
-0.4180011749267578
-0.49642226099967957
-0.5675796866416931
-0.6298952102661133
-0.6819636225700378
-0.7226409912109375
-0.7510986328125
-0.7668445110321045
-0.7697041034698486
-0.7597904801368713
-0.737449586391449
-0.7032153606414795
-0.6577669978141785
-0.6018989086151123
-0.5365024209022522
-0.4625636637210846
-0.381157249212265
-0.2934607267379761
-0.2007606327533722
-0.10445805639028549
-0.0060806795954704285
0.09272413700819016
0.19020816683769226
0.2845568358898163
0.37395498156547546
0.45666220784187317
0.5311059355735779
0.595963716506958
0.6502252221107483
0.693226158618927
0.7246416211128235
0.7444660067558289
0.67984938621521
0.6997177004814148
0.7053291201591492
0.6959310173988342
0.6715161800384521
0.6328893303871155
0.5816142559051514
0.5198273062705994
0.44996151328086853
0.37442973256111145
0.2953529357910156
0.21439677476882935
0.13273131847381592
0.05111073702573776
-0.02997715026140213
-0.11013466864824295
-0.18889698386192322
-0.26561516523361206
-0.3393997251987457
-0.4091363251209259
-0.4735298454761505
-0.5312106013298035
-0.5808255076408386
-0.6211444139480591
-0.6511438488960266
-0.670060932636261
-0.6774415373802185
-0.6731576323509216
-0.657416582107544
-0.630750298500061
-0.5939747095108032
-0.5481361746788025
-0.49442192912101746
-0.4340669810771942
-0.3682499825954437
-0.29802408814430237
-0.224272221326828
-0.14771157503128052
-0.06894410401582718
0.011469624936580658
0.09292256087064743
0.17466914653778076
0.2557506263256073
0.3349514901638031
0.4107837975025177
0.48151546716690063
0.5452449917793274
0.6000185608863831
0.6439836025238037
0.6755626201629639
0.6936233639717102
0.6976192593574524
0.6876653432846069
0.6645327210426331
0.6295387148857117
0.5843506455421448
0.53075110912323
0.47041335701942444
0.40475139021873474
0.3348611891269684
0.26155221462249756
0.18543490767478943
0.10703093558549881
0.026882939040660858
-0.05436309427022934
-0.13589149713516235
-0.21668767929077148
-0.29552939534187317
-0.3710077404975891
-0.44158080220222473
-0.505660891532898
-0.56171053647995
-0.608356773853302
-0.644484281539917
-0.6693073511123657
-0.6823903918266296
-0.6836420297622681
-0.6732744574546814
-0.6517417430877686
-0.6196832060813904
-0.5778740048408508
-0.5271732211112976
-0.4685077369213104
-0.4028441905975342
-0.3311762809753418
-0.2545248568058014
-0.17393678426742554
-0.09049377590417862
-0.005330361425876617
0.08033961802721024
0.1652137041091919
0.24788811802864075
0.3268776535987854
0.4006689786911011
0.4677827060222626
0.5268672108650208
0.5767800807952881
0.6166523098945618
0.645929753780365
0.6643789410591125
0.587867259979248
0.6019414067268372
0.6026574969291687
0.589850664138794
0.5641633868217468
0.5269999504089355
0.4803358018398285
0.4264311194419861
0.3675059378147125
0.305461585521698
0.24171119928359985
0.1771337389945984
0.11214771121740341
0.046864770352840424
-0.01873490959405899
-0.08462045341730118
-0.1505645215511322
-0.21605184674263
-0.28023338317871094
-0.3419528901576996
-0.3998132646083832
-0.4522867500782013
-0.49784234166145325
-0.5350779891014099
-0.562826931476593
-0.5802496671676636
-0.5868877172470093
-0.5826908946037292
-0.5680115222930908
-0.5435581803321838
-0.5103272795677185
-0.46949532628059387
-0.42230454087257385
-0.3699352741241455
-0.3134181797504425
-0.25357264280319214
-0.19100871682167053
-0.1261603832244873
-0.05937022715806961
0.00902237743139267
0.07858140021562576
0.14869195222854614
0.21849653124809265
0.28686004877090454
0.3523705303668976
0.4133758246898651
0.46806734800338745
0.5146114826202393
0.5513135194778442
0.5768128633499146
0.5902559161186218
0.5914238691329956
0.5807639956474304
0.5593141913414001
0.5285106897354126
0.4899444580078125
0.44511678814888
0.3952620327472687
0.3412788510322571
0.28375884890556335
0.2230846881866455
0.1595507264137268
0.09347646683454514
0.025295041501522064
-0.044390566647052765
-0.11478235572576523
-0.18487486243247986
-0.2534750699996948
-0.3192327916622162
-0.3806970417499542
-0.43638959527015686
-0.48489972949028015
-0.5249788761138916
-0.555632472038269
-0.5761818289756775
-0.5862927436828613
-0.5859600901603699
-0.5754731893539429
-0.5553511381149292
-0.5262842774391174
-0.4890792667865753
-0.4446127116680145
-0.3937956988811493
-0.33754077553749084
-0.27674347162246704
-0.21226003766059875
-0.14490550756454468
-0.07546117156744003
-0.004695110023021698
0.0665920302271843
0.13752973079681396
0.20713511109352112
0.2742935121059418
0.33776912093162537
0.39625006914138794
0.44842830300331116
0.4930901527404785
0.5292074680328369
0.5560119152069092
0.573043704032898
0.4832257926464081
0.4909876585006714
0.4869740307331085
0.471677303314209
0.44634488224983215
0.4127975404262543
0.3731364905834198
0.32941827178001404
0.28337112069129944
0.2362177073955536
0.18862301111221313
0.14076438546180725
0.09246697276830673