# vtk DataFile Version 3.0
2D PINN Solution
ASCII
DATASET STRUCTURED_GRID
DIMENSIONS 100 100 1
POINTS 10000 float
-1.0 -1.0 0.0
-0.9797979797979798 -1.0 0.0
-0.9595959595959596 -1.0 0.0
-0.9393939393939394 -1.0 0.0
-0.9191919191919192 -1.0 0.0
-0.898989898989899 -1.0 0.0
-0.8787878787878788 -1.0 0.0
-0.8585858585858586 -1.0 0.0
-0.8383838383838383 -1.0 0.0
-0.8181818181818181 -1.0 0.0
-0.797979797979798 -1.0 0.0
-0.7777777777777778 -1.0 0.0
-0.7575757575757576 -1.0 0.0
-0.7373737373737373 -1.0 0.0
-0.7171717171717171 -1.0 0.0
-0.696969696969697 -1.0 0.0
-0.6767676767676767 -1.0 0.0
-0.6565656565656566 -1.0 0.0
-0.6363636363636364 -1.0 0.0
-0.6161616161616161 -1.0 0.0
-0.5959595959595959 -1.0 0.0
-0.5757575757575757 -1.0 0.0
-0.5555555555555556 -1.0 0.0
-0.5353535353535352 -1.0 0.0
-0.5151515151515151 -1.0 0.0
-0.4949494949494949 -1.0 0.0
-0.4747474747474747 -1.0 0.0
-0.4545454545454545 -1.0 0.0
-0.43434343434343425 -1.0 0.0
-0.41414141414141414 -1.0 0.0
-0.3939393939393939 -1.0 0.0
-0.3737373737373737 -1.0 0.0
-0.3535353535353535 -1.0 0.0
-0.33333333333333326 -1.0 0.0
-0.31313131313131304 -1.0 0.0
-0.2929292929292928 -1.0 0.0
-0.2727272727272727 -1.0 0.0
-0.2525252525252525 -1.0 0.0
-0.23232323232323226 -1.0 0.0
-0.21212121212121204 -1.0 0.0
-0.19191919191919182 -1.0 0.0
-0.1717171717171716 -1.0 0.0
-0.1515151515151515 -1.0 0.0
-0.13131313131313127 -1.0 0.0
-0.11111111111111105 -1.0 0.0
-0.09090909090909083 -1.0 0.0
-0.07070707070707061 -1.0 0.0
-0.050505050505050386 -1.0 0.0
-0.030303030303030276 -1.0 0.0
-0.010101010101010055 -1.0 0.0
0.010101010101010166 -1.0 0.0
0.030303030303030498 -1.0 0.0
0.05050505050505061 -1.0 0.0
0.07070707070707072 -1.0 0.0
0.09090909090909105 -1.0 0.0
0.11111111111111116 -1.0 0.0
0.1313131313131315 -1.0 0.0
0.1515151515151516 -1.0 0.0
0.1717171717171717 -1.0 0.0
0.19191919191919204 -1.0 0.0
0.21212121212121215 -1.0 0.0
0.2323232323232325 -1.0 0.0
0.2525252525252526 -1.0 0.0
0.27272727272727293 -1.0 0.0
0.29292929292929304 -1.0 0.0
0.31313131313131315 -1.0 0.0
0.3333333333333335 -1.0 0.0
0.3535353535353536 -1.0 0.0
0.3737373737373739 -1.0 0.0
0.39393939393939403 -1.0 0.0
0.41414141414141437 -1.0 0.0
0.4343434343434345 -1.0 0.0
0.4545454545454546 -1.0 0.0
0.4747474747474749 -1.0 0.0
0.49494949494949503 -1.0 0.0
0.5151515151515154 -1.0 0.0
0.5353535353535355 -1.0 0.0
0.5555555555555556 -1.0 0.0
0.5757575757575759 -1.0 0.0
0.595959595959596 -1.0 0.0
0.6161616161616164 -1.0 0.0
0.6363636363636365 -1.0 0.0
0.6565656565656568 -1.0 0.0
0.6767676767676769 -1.0 0.0
0.696969696969697 -1.0 0.0
0.7171717171717173 -1.0 0.0
0.7373737373737375 -1.0 0.0
0.7575757575757578 -1.0 0.0
0.7777777777777779 -1.0 0.0
0.7979797979797982 -1.0 0.0
0.8181818181818183 -1.0 0.0
0.8383838383838385 -1.0 0.0
0.8585858585858588 -1.0 0.0
0.8787878787878789 -1.0 0.0
0.8989898989898992 -1.0 0.0
0.9191919191919193 -1.0 0.0
0.9393939393939394 -1.0 0.0
0.9595959595959598 -1.0 0.0
0.9797979797979799 -1.0 0.0
1.0 -1.0 0.0
-1.0 -0.9797979797979798 0.0
-0.9797979797979798 -0.9797979797979798 0.0
-0.9595959595959596 -0.9797979797979798 0.0
-0.9393939393939394 -0.9797979797979798 0.0
-0.9191919191919192 -0.9797979797979798 0.0
-0.898989898989899 -0.9797979797979798 0.0
-0.8787878787878788 -0.9797979797979798 0.0
-0.8585858585858586 -0.9797979797979798 0.0
-0.8383838383838383 -0.9797979797979798 0.0
-0.8181818181818181 -0.9797979797979798 0.0
-0.797979797979798 -0.9797979797979798 0.0
-0.7777777777777778 -0.9797979797979798 0.0
-0.7575757575757576 -0.9797979797979798 0.0
-0.7373737373737373 -0.9797979797979798 0.0
-0.7171717171717171 -0.9797979797979798 0.0
-0.696969696969697 -0.9797979797979798 0.0
-0.6767676767676767 -0.9797979797979798 0.0
-0.6565656565656566 -0.9797979797979798 0.0
-0.6363636363636364 -0.9797979797979798 0.0
-0.6161616161616161 -0.9797979797979798 0.0
-0.5959595959595959 -0.9797979797979798 0.0
-0.5757575757575757 -0.9797979797979798 0.0
-0.5555555555555556 -0.9797979797979798 0.0
-0.5353535353535352 -0.9797979797979798 0.0
-0.5151515151515151 -0.9797979797979798 0.0
-0.4949494949494949 -0.9797979797979798 0.0
-0.4747474747474747 -0.9797979797979798 0.0
-0.4545454545454545 -0.9797979797979798 0.0
-0.43434343434343425 -0.9797979797979798 0.0
-0.41414141414141414 -0.9797979797979798 0.0
-0.3939393939393939 -0.9797979797979798 0.0
-0.3737373737373737 -0.9797979797979798 0.0
-0.3535353535353535 -0.9797979797979798 0.0
-0.33333333333333326 -0.9797979797979798 0.0
-0.31313131313131304 -0.9797979797979798 0.0
-0.2929292929292928 -0.9797979797979798 0.0
-0.2727272727272727 -0.9797979797979798 0.0
-0.2525252525252525 -0.9797979797979798 0.0
-0.23232323232323226 -0.9797979797979798 0.0
-0.21212121212121204 -0.9797979797979798 0.0
-0.19191919191919182 -0.9797979797979798 0.0
-0.1717171717171716 -0.9797979797979798 0.0
-0.1515151515151515 -0.9797979797979798 0.0
-0.13131313131313127 -0.9797979797979798 0.0
-0.11111111111111105 -0.9797979797979798 0.0
-0.09090909090909083 -0.9797979797979798 0.0
-0.07070707070707061 -0.9797979797979798 0.0
-0.050505050505050386 -0.9797979797979798 0.0
-0.030303030303030276 -0.9797979797979798 0.0
-0.010101010101010055 -0.9797979797979798 0.0
0.010101010101010166 -0.9797979797979798 0.0
0.030303030303030498 -0.9797979797979798 0.0
0.05050505050505061 -0.9797979797979798 0.0
0.07070707070707072 -0.9797979797979798 0.0
0.09090909090909105 -0.9797979797979798 0.0
0.11111111111111116 -0.9797979797979798 0.0
0.1313131313131315 -0.9797979797979798 0.0
0.1515151515151516 -0.9797979797979798 0.0
0.1717171717171717 -0.9797979797979798 0.0
0.19191919191919204 -0.9797979797979798 0.0
0.21212121212121215 -0.9797979797979798 0.0
0.2323232323232325 -0.9797979797979798 0.0
0.2525252525252526 -0.9797979797979798 0.0
0.27272727272727293 -0.9797979797979798 0.0
0.29292929292929304 -0.9797979797979798 0.0
0.31313131313131315 -0.9797979797979798 0.0
0.3333333333333335 -0.9797979797979798 0.0
0.3535353535353536 -0.9797979797979798 0.0
0.3737373737373739 -0.9797979797979798 0.0
0.39393939393939403 -0.9797979797979798 0.0
0.41414141414141437 -0.9797979797979798 0.0
0.4343434343434345 -0.9797979797979798 0.0
0.4545454545454546 -0.9797979797979798 0.0
0.4747474747474749 -0.9797979797979798 0.0
0.49494949494949503 -0.9797979797979798 0.0
0.5151515151515154 -0.9797979797979798 0.0
0.5353535353535355 -0.9797979797979798 0.0
0.5555555555555556 -0.9797979797979798 0.0
0.5757575757575759 -0.9797979797979798 0.0
0.595959595959596 -0.9797979797979798 0.0
0.6161616161616164 -0.9797979797979798 0.0
0.6363636363636365 -0.9797979797979798 0.0
0.6565656565656568 -0.9797979797979798 0.0
0.6767676767676769 -0.9797979797979798 0.0
0.696969696969697 -0.9797979797979798 0.0
0.7171717171717173 -0.9797979797979798 0.0
0.7373737373737375 -0.9797979797979798 0.0
0.7575757575757578 -0.9797979797979798 0.0
0.7777777777777779 -0.9797979797979798 0.0
0.7979797979797982 -0.9797979797979798 0.0
0.8181818181818183 -0.9797979797979798 0.0
0.8383838383838385 -0.9797979797979798 0.0
0.8585858585858588 -0.9797979797979798 0.0
0.8787878787878789 -0.9797979797979798 0.0
0.8989898989898992 -0.9797979797979798 0.0
0.9191919191919193 -0.9797979797979798 0.0
0.9393939393939394 -0.9797979797979798 0.0
0.9595959595959598 -0.9797979797979798 0.0
0.9797979797979799 -0.9797979797979798 0.0
1.0 -0.9797979797979798 0.0
-1.0 -0.9595959595959596 0.0
-0.9797979797979798 -0.9595959595959596 0.0
-0.9595959595959596 -0.9595959595959596 0.0
-0.9393939393939394 -0.9595959595959596 0.0
-0.9191919191919192 -0.9595959595959596 0.0
-0.898989898989899 -0.9595959595959596 0.0
-0.8787878787878788 -0.9595959595959596 0.0
-0.8585858585858586 -0.9595959595959596 0.0
-0.8383838383838383 -0.9595959595959596 0.0
-0.8181818181818181 -0.9595959595959596 0.0
-0.797979797979798 -0.9595959595959596 0.0
-0.7777777777777778 -0.9595959595959596 0.0
-0.7575757575757576 -0.9595959595959596 0.0
-0.7373737373737373 -0.9595959595959596 0.0
-0.7171717171717171 -0.9595959595959596 0.0
-0.696969696969697 -0.9595959595959596 0.0
-0.6767676767676767 -0.9595959595959596 0.0
-0.6565656565656566 -0.9595959595959596 0.0
-0.6363636363636364 -0.9595959595959596 0.0
-0.6161616161616161 -0.9595959595959596 0.0
-0.5959595959595959 -0.9595959595959596 0.0
-0.5757575757575757 -0.9595959595959596 0.0
-0.5555555555555556 -0.9595959595959596 0.0
-0.5353535353535352 -0.9595959595959596 0.0
-0.5151515151515151 -0.9595959595959596 0.0
-0.4949494949494949 -0.9595959595959596 0.0
-0.4747474747474747 -0.9595959595959596 0.0
-0.4545454545454545 -0.9595959595959596 0.0
-0.43434343434343425 -0.9595959595959596 0.0
-0.41414141414141414 -0.9595959595959596 0.0
-0.3939393939393939 -0.9595959595959596 0.0
-0.3737373737373737 -0.9595959595959596 0.0
-0.3535353535353535 -0.9595959595959596 0.0
-0.33333333333333326 -0.9595959595959596 0.0
-0.31313131313131304 -0.9595959595959596 0.0
-0.2929292929292928 -0.9595959595959596 0.0
-0.2727272727272727 -0.9595959595959596 0.0
-0.2525252525252525 -0.9595959595959596 0.0
-0.23232323232323226 -0.9595959595959596 0.0
-0.21212121212121204 -0.9595959595959596 0.0
-0.19191919191919182 -0.9595959595959596 0.0
-0.1717171717171716 -0.9595959595959596 0.0
-0.1515151515151515 -0.9595959595959596 0.0
-0.13131313131313127 -0.9595959595959596 0.0
-0.11111111111111105 -0.9595959595959596 0.0
-0.09090909090909083 -0.9595959595959596 0.0
-0.07070707070707061 -0.9595959595959596 0.0
-0.050505050505050386 -0.9595959595959596 0.0
-0.030303030303030276 -0.9595959595959596 0.0
-0.010101010101010055 -0.9595959595959596 0.0
0.010101010101010166 -0.9595959595959596 0.0
0.030303030303030498 -0.9595959595959596 0.0
0.05050505050505061 -0.9595959595959596 0.0
0.07070707070707072 -0.9595959595959596 0.0
0.09090909090909105 -0.9595959595959596 0.0
0.11111111111111116 -0.9595959595959596 0.0
0.1313131313131315 -0.9595959595959596 0.0
0.1515151515151516 -0.9595959595959596 0.0
0.1717171717171717 -0.9595959595959596 0.0
0.19191919191919204 -0.9595959595959596 0.0
0.21212121212121215 -0.9595959595959596 0.0
[...]
POINT_DATA 10000
SCALARS u float 1
LOOKUP_TABLE default
0.004014991223812103
0.0033596083521842957
0.002542726695537567
0.0017917975783348083
0.0013042613863945007
0.0012176856398582458
0.0015813931822776794
0.002328537404537201
0.0032735392451286316
0.004133336246013641
0.004588715732097626
0.004371188580989838
0.003357402980327606
0.0016225501894950867
-0.0005686059594154358
-0.0028204992413520813
-0.004719562828540802
-0.005925498902797699
-0.006262548267841339
-0.005757860839366913
-0.004640437662601471
-0.003282003104686737
-0.0021089985966682434
-0.001501418650150299
-0.0017045661807060242
-0.0027765706181526184
-0.004578404128551483
-0.006808169186115265
-0.009057201445102692
-0.010884486138820648
-0.011886321008205414
-0.01176702231168747
-0.010376758873462677
-0.0077460333704948425
-0.00408867746591568
0.00022385269403457642
0.004704125225543976
0.008825145661830902
0.012093089520931244
0.01411997526884079
0.01467219740152359
0.01369466632604599
0.011317096650600433
0.007824502885341644
0.003620944917201996
-0.0008183494210243225
-0.004998438060283661
-0.00846504420042038
-0.010853223502635956
-0.01194288581609726
-0.011681832373142242
-0.010198526084423065
-0.00777425616979599
-0.0048011913895606995
-0.0017154589295387268
0.0010629817843437195
0.003186248242855072
0.00441337376832962
0.004642151296138763
0.003927044570446014
0.0024917349219322205
0.0007025822997093201
-0.000993870198726654
-0.0021798238158226013
-0.002581097185611725
-0.002153448760509491
-0.0010846629738807678
0.00026085227727890015
0.0014495179057121277
0.0020869895815849304
0.0019069835543632507
0.0008261725306510925
-0.0010453537106513977
-0.0034169331192970276
-0.005867592990398407
-0.007906891405582428
-0.009049572050571442
-0.008899025619029999
-0.007216610014438629
-0.00397837907075882
0.0005893036723136902
0.006012432277202606
0.011609189212322235
0.016573630273342133
0.02008601278066635
0.0214378759264946
0.02015901356935501
0.01609993726015091
0.00950121134519577
0.0009786412119865417
-0.008511953055858612
-0.017752371728420258
-0.025377832353115082
-0.029976584017276764
-0.03021063655614853
-0.024912334978580475
-0.013158850371837616
0.005662687122821808
0.03181669861078262
0.06520663946866989
0.003944478929042816
0.01687627285718918
0.029834799468517303
0.04311590641736984
0.05688973516225815
0.07112740725278854
0.08555134385824203
0.09961216896772385
0.1125311478972435
0.1233990415930748
0.13134342432022095
0.1357196867465973
0.13626563549041748
0.13316133618354797
0.126970112323761
0.1184837594628334
0.10854003578424454
0.09785280376672745
0.08689554780721664
0.07585539668798447
0.06465285271406174
0.05301300436258316
0.04058312624692917
0.027054376900196075
0.01226169615983963
-0.0037460550665855408
-0.02069508284330368
-0.038107506930828094
-0.055368147790431976
-0.07179669290781021
-0.08673008531332016
-0.09959051758050919
-0.10993912070989609
-0.1175171360373497
-0.1222621276974678
-0.12430354207754135
-0.12393788248300552
-0.12157481163740158
-0.11766878515481949
-0.11264824122190475
-0.10685291141271591
-0.10049334913492203
-0.0936378464102745
-0.0862266793847084
-0.07810086756944656
-0.06904267519712448
-0.05882013589143753
-0.04723333567380905
-0.03415670245885849
-0.019577570259571075
-0.003633461892604828
0.013377375900745392
0.03100188821554184
0.04866572469472885
0.06573265045881271
0.08156830817461014
0.09559490531682968
0.10734368115663528
0.1164768859744072
0.12282148748636246
0.12637510895729065
0.12732866406440735
0.12602514028549194
0.12290232628583908
0.1183735653758049
0.11271544545888901
0.106012262403965
0.09815452247858047
0.0889209434390068
0.07808107882738113
0.06549487262964249
0.05118431895971298
0.035353951156139374
0.018386177718639374
0.0008106455206871033
-0.016754306852817535
-0.0336606428027153
-0.04929887503385544
-0.06316033750772476
-0.07489236444234848
-0.08434570580720901
-0.09159073978662491
-0.09691382199525833
-0.10077136009931564
-0.10371186584234238
-0.10628662258386612
-0.1089332178235054
-0.11188230663537979
-0.11508873850107193
-0.11820165067911148
-0.12058108299970627
-0.1213482990860939
-0.1194693073630333
-0.11385781317949295
-0.10346973687410355
-0.08740230649709702
-0.06496330350637436
-0.03574056178331375
0.00036507099866867065
0.043113552033901215
0.0033988282084465027
0.030058644711971283
0.05690857023000717
0.08425726741552353
0.11219476908445358
0.14048883318901062
0.16852408647537231
0.19530129432678223
0.21951612830162048
0.23974621295928955
0.2546929121017456
0.26344063878059387
0.2656409442424774
0.2615562975406647
0.25195759534835815
0.23791077733039856
0.22054344415664673
0.20084699988365173
0.179549902677536
0.15706035494804382
0.13349470496177673
0.10875377804040909
0.08264053612947464
0.054979853332042694
0.025730185210704803
-0.00494743138551712
-0.03666143864393234
-0.06880197674036026
-0.10059579461812973
-0.13117504119873047
-0.1596584916114807
-0.18522387742996216
-0.20716768503189087
-0.22494953870773315
-0.2382233738899231
-0.2468489408493042
-0.25089195370674133
-0.250590980052948
-0.24631395936012268
-0.23849204182624817
-0.22755637764930725
-0.2138814628124237
-0.19775450229644775
-0.17936429381370544
-0.1588234305381775
-0.1361909806728363
-0.11151563376188278
-0.08486860245466232
-0.05637683719396591
-0.0262598916888237
0.00514722615480423
0.03737316280603409
0.06980877369642258
0.10172373801469803
0.13231337070465088
0.16075986623764038
0.18629002571105957
0.20822924375534058
0.22603678703308105
0.23933005332946777
0.24790632724761963
0.2517637610435486
0.25110548734664917
0.24631404876708984
0.23786863684654236
0.2262389063835144
0.21177446842193604
0.19466239213943481
0.17494866251945496
0.1526184380054474
0.1276998221874237
0.10033043473958969
0.07081475108861923
0.03961633890867233
0.007348589599132538
-0.025271274149417877
-0.05746971815824509
-0.08846152573823929
-0.11751116067171097
-0.14397525787353516
-0.16735532879829407
-0.18732985854148865
-0.20377707481384277
-0.2167588174343109
-0.22650399804115295
-0.2333267331123352
-0.23756378889083862
-0.23947685956954956
-0.23918095231056213
-0.23659053444862366
-0.23140963912010193
-0.2231425940990448
-0.21114936470985413
-0.19472184777259827
-0.1731642782688141
-0.14587724208831787
-0.11242983490228653
-0.07262160629034042
-0.026528097689151764
0.02548115700483322
0.0025664791464805603
0.04306485503911972
0.08383365720510483
0.12510928511619568
0.1668359935283661
0.20854592323303223
0.2493017315864563
0.2877258062362671
0.3221278190612793
0.3507412374019623
0.3720110356807709
0.38486844301223755
0.388908714056015
0.38441577553749084
0.37223178148269653
0.3535361588001251
0.32960084080696106
0.3015916049480438
0.270438551902771
0.23678147792816162
0.200982004404068
0.16319194436073303
0.12344937771558762
0.08178588002920151
0.038330696523189545
-0.006623007357120514
-0.05257577449083328
-0.09881744533777237
-0.1444593369960785
-0.18849721550941467
-0.22987791895866394
-0.2675751745700836
-0.3006524443626404
-0.32831183075904846
-0.34993821382522583
-0.36511996388435364
-0.3736709952354431
-0.3756290376186371
-0.3712296187877655
-0.3608710765838623
-0.3450450003147125
-0.32428160309791565
-0.29909005761146545
-0.269929975271225
-0.2371993064880371
-0.20124870538711548
-0.16240888833999634
-0.12102121859788895
-0.07746764272451401
-0.0321991965174675
0.014242701232433319
0.06120673567056656
0.1079275831580162
0.15352877974510193
0.1970600187778473
0.23754340410232544
0.2740336060523987
0.3056759834289551
0.3317497670650482
0.3516932725906372
0.36512985825538635
0.37188783288002014
0.3720245361328125
0.365827351808548
0.353781133890152
0.33647623658180237
0.31449803709983826
0.28832828998565674
0.2583136558532715
0.22470012307167053
0.187709242105484
0.1476254165172577
0.1048491820693016
0.059925250709056854
0.01353646069765091
-0.03351958841085434
-0.0803624764084816
-0.12606340646743774
-0.16969260573387146
-0.21035274863243103
-0.24723342061042786
-0.27965041995048523
-0.30708184838294983
-0.3292020857334137
-0.3458764851093292
-0.3571488559246063
-0.36318811774253845
-0.36423441767692566
-0.36051639914512634
-0.35219481587409973
-0.3393115699291229
-0.32177919149398804
-0.29938650131225586
-0.27184590697288513
-0.2388499677181244
-0.20014110207557678
-0.15557152032852173
-0.105170838534832
-0.04918735474348068
0.011872909963130951
0.0016447529196739197
0.05599122494459152
0.11055343598127365
0.16539591550827026
0.22024846076965332
0.27438971400260925
0.32661154866218567
0.3752773106098175
0.4184853434562683
0.45432350039482117
0.48114731907844543
0.497832328081131
0.50392085313797
0.4996327757835388
0.4857475161552429
0.4634017050266266
0.43387606739997864
0.3984140455722809
0.358097106218338
0.3137882351875305
0.26612523198127747
0.2155660092830658
0.1624513566493988
0.10708572715520859
0.0498175248503685
-0.008895806968212128
-0.06843820959329605
-0.12801536917686462
-0.1866583526134491
-0.24326658248901367
-0.29666057229042053
-0.34565219283103943
-0.38911083340644836
-0.42601925134658813
-0.4555196464061737
-0.4769550859928131
-0.48989757895469666
-0.49417153000831604
-0.4898587763309479
-0.47728005051612854
-0.4569537937641144
-0.4295339286327362
-0.39573779702186584
-0.356291800737381
-0.3118891417980194
-0.2631795108318329
-0.21077582240104675
-0.15528282523155212
-0.09732294827699661
-0.037568576633930206
0.023236490786075592
0.08426029235124588
0.144577294588089
0.20316678285598755
0.2589386999607086
0.3107692301273346
0.35756009817123413
0.39829614758491516
0.4320947527885437
0.45824313163757324
0.47622111439704895
0.48572471737861633
0.48668739199638367
0.4793020486831665
0.46401795744895935
0.44148507714271545
0.4124615490436554
0.3776891529560089
0.3378128111362457
0.2933558225631714
0.2447652816772461
0.19248425960540771
0.137025386095047
0.0790150836110115
0.019202373921871185
-0.04153866320848465
-0.10222917050123215
-0.161817729473114
-0.21919992566108704
-0.27325931191444397
-0.3229120969772339
-0.36714908480644226
-0.40509238839149475
-0.43604329228401184
-0.4595159590244293
-0.47526195645332336
-0.48325327038764954
-0.4836558997631073
-0.4767618477344513
-0.4629320204257965
-0.4425257742404938
-0.4158470034599304
-0.3831256330013275
-0.34451574087142944
-0.30012473464012146
-0.25005659461021423
-0.1944737434387207
-0.13365104794502258
-0.06802105158567429
0.0017735883593559265
0.0008074566721916199
0.0688304528594017
0.13684043288230896
0.20462870597839355
0.271657794713974
0.3369652032852173
0.39915430545806885
0.45647960901260376
0.5070148706436157
0.548880934715271
0.5804798007011414
0.6006885170936584
0.6089763045310974
0.6054219603538513
0.5906267762184143
0.565571665763855
0.5314466953277588
0.4894958734512329
0.4408988058567047
0.38671448826789856
0.3278544247150421
0.2650998532772064
0.19913572072982788
0.13058558106422424
0.06006733328104019
-0.011755309998989105
-0.08412808924913406
-0.15616434812545776
-0.22683259844779968
-0.29496604204177856
-0.3592998683452606
-0.4185289442539215
-0.47137168049812317
-0.5166343450546265
-0.5532655119895935
-0.5803977847099304
-0.597396194934845
-0.6038901209831238
-0.5998007655143738
-0.5853490233421326
-0.5610331296920776
-0.5275824666023254
-0.48588302731513977
-0.4369013011455536
-0.3816172182559967
-0.3209756314754486
-0.2558780312538147
-0.18718621134757996
-0.11575353890657425
-0.04245512932538986
0.03178077191114426
0.10595446079969406
0.17898061871528625
0.24969607591629028
0.31687086820602417
0.37924453616142273
0.4355728328227997
0.48469415307044983
0.5255820155143738
0.5573903322219849
0.5794872045516968
0.5914706587791443
0.5931910872459412
0.5847722291946411
0.5666201710700989
0.5394048690795898
0.5039861798286438
0.4613019526004791
0.4122559726238251
0.35763922333717346
0.29813292622566223
0.23435834050178528
0.1669512689113617
0.09662752598524094
0.024215243756771088
-0.049334026873111725
-0.12294391542673111
-0.1954393982887268
-0.2655576467514038
-0.3319929540157318
-0.3934211730957031
-0.4485601484775543
-0.4962250888347626
-0.5353943109512329
-0.5652669072151184
-0.5853163003921509
-0.5953050255775452
-0.595295250415802
-0.5855961441993713
-0.5667096972465515
-0.5392595529556274
-0.5039069056510925
-0.46129557490348816
-0.4120151698589325
-0.3565923273563385
-0.2955140173435211
-0.22926560044288635
-0.15837985277175903
-0.0834919735789299
-0.005383901298046112
0.0001804456114768982
0.08144184201955795
0.1622695028781891
0.24210062623023987
0.32010403275489807
0.3951195180416107
0.46566927433013916
0.5300537347793579
0.5864841341972351
0.6332496404647827
0.6688796877861023
0.6922711730003357
0.702792227268219
0.7003163695335388
0.6852040886878967
0.6582210659980774
0.6204138398170471
0.5729753971099854
0.5171393752098083
0.4541085362434387
0.38503092527389526
0.3109910488128662
0.23301181197166443
0.15205976366996765
0.06906331330537796
-0.015066079795360565
-0.09939271956682205
-0.182915598154068
-0.2645329535007477
-0.34302839636802673
-0.41708439588546753
-0.4853222668170929
-0.5463584065437317
-0.5988737940788269
-0.6416723728179932
-0.6737343072891235
-0.6942633986473083
-0.7027333378791809
-0.6989228129386902
-0.6829395890235901
-0.6552271842956543
-0.6165326237678528
-0.5678479671478271
-0.5103282332420349
-0.4452025592327118
-0.37370046973228455
-0.29700806736946106
-0.2162494957447052
-0.13250580430030823
-0.046843789517879486
0.039643533527851105
0.12581008672714233
0.2104334533214569
0.2922142744064331
0.36978963017463684
0.4417647421360016
0.5067607760429382
0.5634759664535522
0.6107495427131653
0.6476197838783264
0.6733591556549072
0.6875036358833313
0.6898583173751831
0.6805139183998108
0.6598556637763977
0.6285513639450073
0.5875124335289001
0.5377950668334961
0.4804932773113251
0.4166262447834015
0.3470967710018158
0.2727137804031372
0.1942516267299652
0.11253216117620468
0.028473161160945892
-0.0568777397274971
-0.1423415243625641
-0.22661325335502625
-0.3082856237888336
-0.38587385416030884
-0.45785704255104065
-0.5227278470993042
-0.5790560841560364
-0.6255626082420349
-0.6611906886100769
-0.6851755976676941
-0.6970905661582947
-0.6968761086463928
-0.684819757938385
-0.6615087389945984
-0.6277590394020081
-0.5845251083374023
-0.5328125357627869
-0.47360965609550476
-0.4078507721424103
-0.33640041947364807
-0.2600760757923126
-0.1796865165233612
-0.09608129411935806
-0.010197527706623077
-0.0001775696873664856
0.0935390517115593
0.1862286925315857
0.2769220769405365
0.36450082063674927
0.4476732313632965
0.5249975919723511
0.5949464440345764
0.6559837460517883
0.7066428065299988
0.74560546875
0.77178555727005
0.7844170928001404
0.783143937587738
0.7680656313896179
0.7397247552871704
0.6990188360214233
0.647075891494751
0.5851402878761292
0.5145063996315002
0.4364866316318512
0.3524028956890106
0.26357871294021606
0.1713104546070099
0.07685258239507675
-0.01859331876039505
-0.11386484652757645
-0.2078012228012085
-0.2992056906223297
-0.3868119418621063
-0.469270259141922
-0.5451683402061462
-0.6130720973014832
-0.671592116355896
-0.7194460034370422
-0.7555192112922668
-0.7789136171340942
-0.7889943718910217
-0.7854296565055847
-0.7682254910469055
-0.7377445101737976
-0.6947004795074463
-0.6401202082633972
-0.575272262096405
-0.5015756487846375
-0.4205079972743988
-0.33352530002593994
-0.2420206069946289
-0.1473093330860138
-0.05065419524908066
0.04669996351003647
0.1434815227985382
0.2383584976196289
0.32992371916770935
0.4167031943798065
0.49718114733695984
0.5698497295379639
0.633279025554657
0.6861820816993713
0.7274876236915588
0.7563905119895935
0.772377073764801
0.7752399444580078
0.7650717496871948
0.7422619462013245
0.7074833512306213
0.6616615056991577
0.6059111952781677
0.5414334535598755
0.46941229701042175
0.3909431993961334
0.30701345205307007
0.218552827835083
0.12650614976882935
0.03190108388662338
-0.06410501152276993
-0.1602112054824829
-0.2549826502799988
-0.3468632400035858
-0.4342142641544342
-0.5153476595878601
-0.5885820388793945
-0.6523099541664124
-0.7050637602806091
-0.7456038594245911
-0.7729880809783936
-0.7866382002830505
-0.7863806486129761
-0.7724523544311523
-0.7454705834388733
-0.706368625164032
-0.6563135981559753
-0.5965951085090637
-0.5285443663597107
-0.45345720648765564
-0.3725613057613373
-0.2870037257671356
-0.19787606596946716
-0.10625841468572617
-0.013259254395961761
-0.00027958303689956665
0.10470890253782272
0.20796015858650208
0.3080844581127167
0.4037149250507355
0.4935019016265869
0.5761309862136841
0.6503301858901978
0.7148687839508057
0.768543541431427
0.8101802468299866
0.8386872410774231
0.8531520962715149
0.8529912829399109
0.8380667567253113
0.8087299466133118
0.7657597661018372
0.710226833820343
0.6433702111244202
0.5665157437324524
0.48106229305267334
0.3884807527065277
0.2903105318546295
0.18812909722328186
0.08350575715303421
-0.022044844925403595
-0.12708601355552673
-0.2302481234073639
-0.3301982581615448
-0.42559918761253357
-0.5150768160820007
-0.5972176194190979
-0.6705861687660217
-0.7337818741798401
-0.7854971885681152
-0.8245809674263
-0.8500901460647583
-0.8613336682319641
-0.8579122424125671
-0.8397474884986877
-0.8071187138557434
-0.7606666684150696
-0.7013863325119019
-0.6305797100067139
-0.5497780442237854
-0.46064284443855286
-0.36487022042274475
-0.26411059498786926
-0.1599290668964386
-0.053795091807842255
0.052886806428432465
0.1587311029434204
0.26232269406318665
0.3621844947338104
0.456766813993454
0.5444651246070862
0.6236685514450073
0.6928309202194214
0.7505505084991455
0.7956538796424866
0.8272591233253479
0.844814121723175
0.8481070399284363
0.8372518420219421
0.8126633763313293
0.7750325202941895
0.7252885699272156
0.664553701877594
0.5940750241279602
0.5151314735412598
0.4289604127407074
0.3367101550102234
0.2394694983959198
0.13832539319992065
0.03443639725446701
-0.07091527432203293
-0.17629960179328918
-0.28013771772384644
-0.3807353675365448
-0.47631028294563293
-0.5650457143783569
-0.6451367735862732
-0.7148559093475342
-0.7726283669471741
-0.8171043395996094
-0.8472315669059753
-0.862328290939331
-0.8621305823326111
-0.846810519695282
-0.8169736862182617
-0.7736002802848816
-0.7179775834083557
-0.6515951156616211
-0.5760424733161926
-0.49292251467704773
-0.403780996799469
-0.3100789487361908
-0.21319431066513062
-0.11444298177957535
-0.015126146376132965
-0.00020084530115127563
0.11445464938879013
0.2266349494457245
0.3345594108104706
0.4366621971130371
0.5316004157066345
0.6182335615158081
0.6955705881118774
0.762679398059845
0.8185949921607971
0.8622657656669617
0.8925744891166687
0.9084684252738953
0.9091644883155823
0.8943358063697815
0.8641992211341858
0.8194612860679626
0.761167049407959
0.690543532371521
0.608913242816925
0.5176829099655151
0.41837355494499207
0.31264275312423706
0.2022627890110016
0.08906873315572739
-0.025117672979831696
-0.13855436444282532
-0.2496143877506256
-0.35677865147590637
-0.4586070477962494
-0.5536908507347107
-0.6406362056732178
-0.7180490493774414
-0.7845743298530579
-0.8389393091201782
-0.880013644695282
-0.906863272190094
-0.9187877774238586
-0.9153575897216797
-0.89644455909729
-0.86224764585495
-0.8133174180984497
-0.750571072101593
-0.6752699017524719
-0.5889701247215271
-0.49344149231910706
-0.3905588686466217
-0.2822062075138092
-0.1701919138431549
-0.056213267147541046
0.058148182928562164
0.17138555645942688
0.2820141017436981
0.3885211646556854
0.4893246591091156
0.5827835202217102
0.6672250628471375
0.7410208582878113
0.8026748299598694
0.850918710231781
0.8847942352294922
0.903703510761261
0.9074251651763916
0.8960900902748108
0.8701429963111877
0.8302953839302063
0.7774813175201416
0.7128132581710815
0.6375387907028198
0.5529775023460388
0.46045252680778503
0.3612496554851532
0.25660794973373413
0.14776739478111267
0.03602837771177292
-0.07718721777200699
-0.19031056761741638
-0.30162596702575684
-0.4093054234981537
-0.5114479660987854
-0.6061373949050903
-0.6914896368980408
-0.7657240033149719
-0.8272192478179932
-0.8745871782302856
-0.9067324995994568
-0.9229210019111633
-0.9228286147117615
-0.9065683484077454
-0.8746979832649231
-0.8281874060630798