# vtk DataFile Version 3.0
2D PINN Solution
ASCII
DATASET STRUCTURED_GRID
DIMENSIONS 100 100 1
POINTS 10000 float
-1.0 -1.0 0.0
-0.9797979797979798 -1.0 0.0
-0.9595959595959596 -1.0 0.0
-0.9393939393939394 -1.0 0.0
-0.9191919191919192 -1.0 0.0
-0.898989898989899 -1.0 0.0
-0.8787878787878788 -1.0 0.0
-0.8585858585858586 -1.0 0.0
-0.8383838383838383 -1.0 0.0
-0.8181818181818181 -1.0 0.0
-0.797979797979798 -1.0 0.0
-0.7777777777777778 -1.0 0.0
-0.7575757575757576 -1.0 0.0
-0.7373737373737373 -1.0 0.0
-0.7171717171717171 -1.0 0.0
-0.696969696969697 -1.0 0.0
-0.6767676767676767 -1.0 0.0
-0.6565656565656566 -1.0 0.0
-0.6363636363636364 -1.0 0.0
-0.6161616161616161 -1.0 0.0
-0.5959595959595959 -1.0 0.0
-0.5757575757575757 -1.0 0.0
-0.5555555555555556 -1.0 0.0
-0.5353535353535352 -1.0 0.0
-0.5151515151515151 -1.0 0.0
-0.4949494949494949 -1.0 0.0
-0.4747474747474747 -1.0 0.0
-0.4545454545454545 -1.0 0.0
-0.43434343434343425 -1.0 0.0
-0.41414141414141414 -1.0 0.0
-0.3939393939393939 -1.0 0.0
-0.3737373737373737 -1.0 0.0
-0.3535353535353535 -1.0 0.0
-0.33333333333333326 -1.0 0.0
-0.31313131313131304 -1.0 0.0
-0.2929292929292928 -1.0 0.0
-0.2727272727272727 -1.0 0.0
-0.2525252525252525 -1.0 0.0
-0.23232323232323226 -1.0 0.0
-0.21212121212121204 -1.0 0.0
-0.19191919191919182 -1.0 0.0
-0.1717171717171716 -1.0 0.0
-0.1515151515151515 -1.0 0.0
-0.13131313131313127 -1.0 0.0
-0.11111111111111105 -1.0 0.0
-0.09090909090909083 -1.0 0.0
-0.07070707070707061 -1.0 0.0
-0.050505050505050386 -1.0 0.0
-0.030303030303030276 -1.0 0.0
-0.010101010101010055 -1.0 0.0
0.010101010101010166 -1.0 0.0
0.030303030303030498 -1.0 0.0
0.05050505050505061 -1.0 0.0
0.07070707070707072 -1.0 0.0
0.09090909090909105 -1.0 0.0
0.11111111111111116 -1.0 0.0
0.1313131313131315 -1.0 0.0
0.1515151515151516 -1.0 0.0
0.1717171717171717 -1.0 0.0
0.19191919191919204 -1.0 0.0
0.21212121212121215 -1.0 0.0
0.2323232323232325 -1.0 0.0
0.2525252525252526 -1.0 0.0
0.27272727272727293 -1.0 0.0
0.29292929292929304 -1.0 0.0
0.31313131313131315 -1.0 0.0
0.3333333333333335 -1.0 0.0
0.3535353535353536 -1.0 0.0
0.3737373737373739 -1.0 0.0
0.39393939393939403 -1.0 0.0
0.41414141414141437 -1.0 0.0
0.4343434343434345 -1.0 0.0
0.4545454545454546 -1.0 0.0
0.4747474747474749 -1.0 0.0
0.49494949494949503 -1.0 0.0
0.5151515151515154 -1.0 0.0
0.5353535353535355 -1.0 0.0
0.5555555555555556 -1.0 0.0
0.5757575757575759 -1.0 0.0
0.595959595959596 -1.0 0.0
0.6161616161616164 -1.0 0.0
0.6363636363636365 -1.0 0.0
0.6565656565656568 -1.0 0.0
0.6767676767676769 -1.0 0.0
0.696969696969697 -1.0 0.0
0.7171717171717173 -1.0 0.0
0.7373737373737375 -1.0 0.0
0.7575757575757578 -1.0 0.0
0.7777777777777779 -1.0 0.0
0.7979797979797982 -1.0 0.0
0.8181818181818183 -1.0 0.0
0.8383838383838385 -1.0 0.0
0.8585858585858588 -1.0 0.0
0.8787878787878789 -1.0 0.0
0.8989898989898992 -1.0 0.0
0.9191919191919193 -1.0 0.0
0.9393939393939394 -1.0 0.0
0.9595959595959598 -1.0 0.0
0.9797979797979799 -1.0 0.0
1.0 -1.0 0.0
-1.0 -0.9797979797979798 0.0
-0.9797979797979798 -0.9797979797979798 0.0
-0.9595959595959596 -0.9797979797979798 0.0
-0.9393939393939394 -0.9797979797979798 0.0
-0.9191919191919192 -0.9797979797979798 0.0
-0.898989898989899 -0.9797979797979798 0.0
-0.8787878787878788 -0.9797979797979798 0.0
-0.8585858585858586 -0.9797979797979798 0.0
-0.8383838383838383 -0.9797979797979798 0.0
-0.8181818181818181 -0.9797979797979798 0.0
-0.797979797979798 -0.9797979797979798 0.0
-0.7777777777777778 -0.9797979797979798 0.0
-0.7575757575757576 -0.9797979797979798 0.0
-0.7373737373737373 -0.9797979797979798 0.0
-0.7171717171717171 -0.9797979797979798 0.0
-0.696969696969697 -0.9797979797979798 0.0
-0.6767676767676767 -0.9797979797979798 0.0
-0.6565656565656566 -0.9797979797979798 0.0
-0.6363636363636364 -0.9797979797979798 0.0
-0.6161616161616161 -0.9797979797979798 0.0
-0.5959595959595959 -0.9797979797979798 0.0
-0.5757575757575757 -0.9797979797979798 0.0
-0.5555555555555556 -0.9797979797979798 0.0
-0.5353535353535352 -0.9797979797979798 0.0
-0.5151515151515151 -0.9797979797979798 0.0
-0.4949494949494949 -0.9797979797979798 0.0
-0.4747474747474747 -0.9797979797979798 0.0
-0.4545454545454545 -0.9797979797979798 0.0
-0.43434343434343425 -0.9797979797979798 0.0
-0.41414141414141414 -0.9797979797979798 0.0
-0.3939393939393939 -0.9797979797979798 0.0
-0.3737373737373737 -0.9797979797979798 0.0
-0.3535353535353535 -0.9797979797979798 0.0
-0.33333333333333326 -0.9797979797979798 0.0
-0.31313131313131304 -0.9797979797979798 0.0
-0.2929292929292928 -0.9797979797979798 0.0
-0.2727272727272727 -0.9797979797979798 0.0
-0.2525252525252525 -0.9797979797979798 0.0
-0.23232323232323226 -0.9797979797979798 0.0
-0.21212121212121204 -0.9797979797979798 0.0
-0.19191919191919182 -0.9797979797979798 0.0
-0.1717171717171716 -0.9797979797979798 0.0
-0.1515151515151515 -0.9797979797979798 0.0
-0.13131313131313127 -0.9797979797979798 0.0
-0.11111111111111105 -0.9797979797979798 0.0
-0.09090909090909083 -0.9797979797979798 0.0
-0.07070707070707061 -0.9797979797979798 0.0
-0.050505050505050386 -0.9797979797979798 0.0
-0.030303030303030276 -0.9797979797979798 0.0
-0.010101010101010055 -0.9797979797979798 0.0
0.010101010101010166 -0.9797979797979798 0.0
0.030303030303030498 -0.9797979797979798 0.0
0.05050505050505061 -0.9797979797979798 0.0
0.07070707070707072 -0.9797979797979798 0.0
0.09090909090909105 -0.9797979797979798 0.0
0.11111111111111116 -0.9797979797979798 0.0
0.1313131313131315 -0.9797979797979798 0.0
0.1515151515151516 -0.9797979797979798 0.0
0.1717171717171717 -0.9797979797979798 0.0
0.19191919191919204 -0.9797979797979798 0.0
0.21212121212121215 -0.9797979797979798 0.0
0.2323232323232325 -0.9797979797979798 0.0
0.2525252525252526 -0.9797979797979798 0.0
0.27272727272727293 -0.9797979797979798 0.0
0.29292929292929304 -0.9797979797979798 0.0
0.31313131313131315 -0.9797979797979798 0.0
0.3333333333333335 -0.9797979797979798 0.0
0.3535353535353536 -0.9797979797979798 0.0
0.3737373737373739 -0.9797979797979798 0.0
0.39393939393939403 -0.9797979797979798 0.0
0.41414141414141437 -0.9797979797979798 0.0
0.4343434343434345 -0.9797979797979798 0.0
0.4545454545454546 -0.9797979797979798 0.0
0.4747474747474749 -0.9797979797979798 0.0
0.49494949494949503 -0.9797979797979798 0.0
0.5151515151515154 -0.9797979797979798 0.0
0.5353535353535355 -0.9797979797979798 0.0
0.5555555555555556 -0.9797979797979798 0.0
0.5757575757575759 -0.9797979797979798 0.0
0.595959595959596 -0.9797979797979798 0.0
0.6161616161616164 -0.9797979797979798 0.0
0.6363636363636365 -0.9797979797979798 0.0
0.6565656565656568 -0.9797979797979798 0.0
0.6767676767676769 -0.9797979797979798 0.0
0.696969696969697 -0.9797979797979798 0.0
0.7171717171717173 -0.9797979797979798 0.0
0.7373737373737375 -0.9797979797979798 0.0
0.7575757575757578 -0.9797979797979798 0.0
0.7777777777777779 -0.9797979797979798 0.0
0.7979797979797982 -0.9797979797979798 0.0
0.8181818181818183 -0.9797979797979798 0.0
0.8383838383838385 -0.9797979797979798 0.0
0.8585858585858588 -0.9797979797979798 0.0
0.8787878787878789 -0.9797979797979798 0.0
0.8989898989898992 -0.9797979797979798 0.0
0.9191919191919193 -0.9797979797979798 0.0
0.9393939393939394 -0.9797979797979798 0.0
0.9595959595959598 -0.9797979797979798 0.0
0.9797979797979799 -0.9797979797979798 0.0
1.0 -0.9797979797979798 0.0
-1.0 -0.9595959595959596 0.0
-0.9797979797979798 -0.9595959595959596 0.0
-0.9595959595959596 -0.9595959595959596 0.0
-0.9393939393939394 -0.9595959595959596 0.0
-0.9191919191919192 -0.9595959595959596 0.0
-0.898989898989899 -0.9595959595959596 0.0
-0.8787878787878788 -0.9595959595959596 0.0
-0.8585858585858586 -0.9595959595959596 0.0
-0.8383838383838383 -0.9595959595959596 0.0
-0.8181818181818181 -0.9595959595959596 0.0
-0.797979797979798 -0.9595959595959596 0.0
-0.7777777777777778 -0.9595959595959596 0.0
-0.7575757575757576 -0.9595959595959596 0.0
-0.7373737373737373 -0.9595959595959596 0.0
-0.7171717171717171 -0.9595959595959596 0.0
-0.696969696969697 -0.9595959595959596 0.0
-0.6767676767676767 -0.9595959595959596 0.0
-0.6565656565656566 -0.9595959595959596 0.0
-0.6363636363636364 -0.9595959595959596 0.0
-0.6161616161616161 -0.9595959595959596 0.0
-0.5959595959595959 -0.9595959595959596 0.0
-0.5757575757575757 -0.9595959595959596 0.0
-0.5555555555555556 -0.9595959595959596 0.0
-0.5353535353535352 -0.9595959595959596 0.0
-0.5151515151515151 -0.9595959595959596 0.0
-0.4949494949494949 -0.9595959595959596 0.0
-0.4747474747474747 -0.9595959595959596 0.0
-0.4545454545454545 -0.9595959595959596 0.0
-0.43434343434343425 -0.9595959595959596 0.0
-0.41414141414141414 -0.9595959595959596 0.0
-0.3939393939393939 -0.9595959595959596 0.0
-0.3737373737373737 -0.9595959595959596 0.0
-0.3535353535353535 -0.9595959595959596 0.0
-0.33333333333333326 -0.9595959595959596 0.0
-0.31313131313131304 -0.9595959595959596 0.0
-0.2929292929292928 -0.9595959595959596 0.0
-0.2727272727272727 -0.9595959595959596 0.0
-0.2525252525252525 -0.9595959595959596 0.0
-0.23232323232323226 -0.9595959595959596 0.0
-0.21212121212121204 -0.9595959595959596 0.0
-0.19191919191919182 -0.9595959595959596 0.0
-0.1717171717171716 -0.9595959595959596 0.0
-0.1515151515151515 -0.9595959595959596 0.0
-0.13131313131313127 -0.9595959595959596 0.0
-0.11111111111111105 -0.9595959595959596 0.0
-0.09090909090909083 -0.9595959595959596 0.0
-0.07070707070707061 -0.9595959595959596 0.0
-0.050505050505050386 -0.9595959595959596 0.0
-0.030303030303030276 -0.9595959595959596 0.0
-0.010101010101010055 -0.9595959595959596 0.0
0.010101010101010166 -0.9595959595959596 0.0
0.030303030303030498 -0.9595959595959596 0.0
0.05050505050505061 -0.9595959595959596 0.0
0.07070707070707072 -0.9595959595959596 0.0
0.09090909090909105 -0.9595959595959596 0.0
0.11111111111111116 -0.9595959595959596 0.0
0.1313131313131315 -0.9595959595959596 0.0
0.1515151515151516 -0.9595959595959596 0.0
0.1717171717171717 -0.9595959595959596 0.0
0.19191919191919204 -0.9595959595959596 0.0
0.21212121212121215 -0.9595959595959596 0.0
[...]
POINT_DATA 10000
SCALARS u float 1
LOOKUP_TABLE default
0.04299064725637436
0.057172439992427826
0.06866031140089035
0.07775633782148361
0.08493491262197495
0.09077104181051254
0.0958552286028862
0.10067155212163925
0.10550057142972946
0.11033584922552109
0.11487185209989548
0.11854445189237595
0.12065001577138901
0.12049128860235214
0.11753412336111069
0.1115143820643425
0.10250362008810043
0.09089424461126328
0.07733868807554245
0.06264760345220566
0.04767010360956192
0.03317265957593918
0.019740678369998932
0.0076975151896476746
-0.002935655415058136
-0.012446470558643341
-0.021386392414569855
-0.030491836369037628
-0.04054815322160721
-0.052232854068279266
-0.06593451648950577
-0.08160340040922165
-0.09865675121545792
-0.11599414795637131
-0.13213622570037842
-0.14545875787734985
-0.15448442101478577
-0.15814939141273499
-0.15597540140151978
-0.14812272787094116
-0.1353158950805664
-0.11869335919618607
-0.09960917383432388
-0.07944261282682419
-0.05943258851766586
-0.04055798798799515
-0.023467205464839935
-0.008454196155071259
0.004519917070865631
0.015768341720104218
0.02579016238451004
0.03516467660665512
0.04443829506635666
0.0540258064866066
0.06413614004850388
0.07473569363355637
0.08555462211370468
0.09613736718893051
0.10591534525156021
0.11429732292890549
0.1207481250166893
0.12485247105360031
0.12635141611099243
0.12515154480934143
0.1213081106543541
0.11498071998357773
0.10637997835874557
0.09572301059961319
0.0832127258181572
0.06904401630163193
0.05342491716146469
0.03660643845796585
0.018905170261859894
0.000712268054485321
-0.017512939870357513
-0.03526804596185684
-0.05203992873430252
-0.06734374910593033
-0.0807725116610527
-0.09203765541315079
-0.10099928826093674
-0.10768458992242813
-0.11227492243051529
-0.11508028954267502
-0.11647475510835648
-0.11683372408151627
-0.11646261066198349
-0.11554241925477982
-0.11409018188714981
-0.11195065826177597
-0.10881482809782028
-0.10425085574388504
-0.0977524146437645
-0.08878029137849808
-0.07680795341730118
-0.061357490718364716
-0.042015694081783295
-0.018460221588611603
0.009538240730762482
0.04211128503084183
0.054570458829402924
0.08295681327581406
0.10899966210126877
0.13281574845314026
0.15459692478179932
0.1745414435863495
0.1927734613418579
0.2092706859111786
0.2238040268421173
0.23592346906661987
0.24500563740730286
0.25033941864967346
0.251257985830307
0.24727216362953186
0.2381667196750641
0.22406774759292603
0.20543399453163147
0.18300914764404297
0.15773099660873413
0.1306282877922058
0.1026979461312294
0.07480131834745407
0.04757460206747055
0.021370314061641693
-0.0037707164883613586
-0.028095193207263947
-0.05207384377717972
-0.07628477364778519
-0.10125768929719925
-0.1273006796836853
-0.15433746576309204
-0.181796133518219
-0.2085927128791809
-0.23323649168014526
-0.25403597950935364
-0.2693741023540497
-0.2779729664325714
-0.2790897786617279
-0.2725967466831207
-0.25896188616752625
-0.23912954330444336
-0.21435996890068054
-0.18605270981788635
-0.15558794140815735
-0.12419713288545609
-0.09287262707948685
-0.062313325703144073
-0.03291217237710953
-0.004779793322086334
0.022193484008312225
0.04825267940759659
0.07366863638162613
0.0986361876130104
0.12318437546491623
0.14713025093078613
0.17007243633270264
0.19143635034561157
0.21053922176361084
0.22668150067329407
0.23921367526054382
0.24759671092033386
0.2514391541481018
0.2505241334438324
0.2448216676712036
0.23449116945266724
0.21984872221946716
0.2013288140296936
0.17941737174987793
0.15460720658302307
0.1273704171180725
0.09815510362386703
0.0674041137099266
0.03557553142309189
0.0031584426760673523
-0.02931559830904007
-0.06128103286027908
-0.09215091913938522
-0.12134071439504623
-0.1482931673526764
-0.17251548171043396
-0.1936023235321045
-0.21126103401184082
-0.22532767057418823
-0.23575431108474731
-0.2425963580608368
-0.24598059058189392
-0.2460635006427765
-0.24299517273902893
-0.23688697814941406
-0.2277916967868805
-0.21570158004760742
-0.2005504071712494
-0.18222498893737793
-0.16058725118637085
-0.13548845052719116
-0.10678809136152267
-0.07436711341142654
-0.03814467042684555
0.0019157752394676208
0.045793212950229645
0.06383278220891953
0.1064736470580101
0.14720821380615234
0.18590795993804932
0.22241488099098206
0.25648224353790283
0.287720650434494
0.31556814908981323
0.33930209279060364
0.35808780789375305
0.37107911705970764
0.3775332570075989
0.3769250810146332
0.3690407872200012
0.35401397943496704
0.33232593536376953
0.3047581613063812
0.27231132984161377
0.23611381649971008
0.19731852412223816
0.15700331330299377
0.11607960611581802
0.07522376626729965
0.03482913225889206
-0.004999004304409027
-0.04439883679151535
-0.08366454392671585
-0.12310623377561569
-0.16288641095161438
-0.202850341796875
-0.24240806698799133
-0.28049084544181824
-0.3156246244907379
-0.3461037874221802
-0.3702431619167328
-0.3866247832775116
-0.3942957818508148
-0.39287760853767395
-0.3825541138648987
-0.3640038073062897
-0.33825811743736267
-0.3065621554851532
-0.27023428678512573
-0.23055216670036316
-0.18866518139839172
-0.14553385972976685
-0.1018948033452034
-0.058261238038539886
-0.014939360320568085
0.027910389006137848
0.07019298523664474
0.11178860813379288
0.15246310830116272
0.19180917739868164
0.2292335331439972
0.26399144530296326
0.2952501177787781
0.32218343019485474
0.34403279423713684
0.36016371846199036
0.3700866997241974
0.3734659254550934
0.37013283371925354
0.36010614037513733
0.34360578656196594
0.32105740904808044
0.29306337237358093
0.2603427767753601
0.22366195917129517
0.18377524614334106
0.141389399766922
0.09715630859136581
0.05168936401605606
0.005585141479969025
-0.04055657237768173
-0.0861198678612709
-0.13046404719352722
-0.17292895913124084
-0.21284160017967224
-0.2495371699333191
-0.2823772728443146
-0.310778945684433
-0.3342355191707611
-0.35234445333480835
-0.36481693387031555
-0.37149205803871155
-0.3723292350769043
-0.36739999055862427
-0.3568675220012665
-0.3409673869609833
-0.3199772536754608
-0.2942017912864685
-0.2639404833316803
-0.2294805645942688
-0.19107848405838013
-0.14896392822265625
-0.10333573073148727
-0.05437537282705307
-0.0022593364119529724
0.052827827632427216
0.0712941512465477
0.12811943888664246
0.18347391486167908
0.2369101345539093
0.2878544330596924
0.3355681002140045
0.37912896275520325
0.41746923327445984
0.4494449198246002
0.4739520847797394
0.4900553822517395
0.49709874391555786
0.4947841465473175
0.48320063948631287
0.4628051519393921
0.43436717987060547
0.39888644218444824
0.35751408338546753
0.31145888566970825
0.2619118094444275
0.2099633812904358
0.15654096007347107
0.10235198587179184
0.04786131531000137
-0.006695263087749481
-0.06125704199075699
-0.11582697182893753
-0.17032727599143982
-0.22444561123847961
-0.27750518918037415
-0.32840803265571594
-0.37568315863609314
-0.417624831199646
-0.4525185525417328
-0.4788701832294464
-0.49559637904167175
-0.5021305680274963
-0.49843212962150574
-0.4849264919757843
-0.46238961815834045
-0.4318303167819977
-0.3943686783313751
-0.35114988684654236
-0.3032735288143158
-0.2517508268356323
-0.197485089302063
-0.14125052094459534
-0.08370215445756912
-0.02539629489183426
0.03316662460565567
0.09147628396749496
0.14895150065422058
0.2048797905445099
0.2584051191806793
0.3085479140281677
0.35427263379096985
0.3945712149143219
0.42854270339012146
0.4554397165775299
0.4746858775615692
0.48586466908454895
0.4887126386165619
0.48311322927474976
0.46911922097206116
0.44698941707611084
0.4172055423259735
0.38047823309898376
0.3376968204975128
0.28985729813575745
0.2379765510559082
0.18302172422409058
0.12587475776672363
0.06733017414808273
0.00811254233121872
-0.051093004643917084
-0.1096101775765419
-0.16674566268920898
-0.221771240234375
-0.2739163339138031
-0.3223719000816345
-0.36630016565322876
-0.4048623740673065
-0.4372512400150299
-0.46273741126060486
-0.4807083308696747
-0.4907167851924896
-0.4925093352794647
-0.4860445559024811
-0.47149839997291565
-0.4492357671260834
-0.41978368163108826
-0.38377872109413147
-0.34191346168518066
-0.2948926091194153
-0.24338868260383606
-0.18801265954971313
-0.12930679321289062
-0.06773962825536728
-0.0037225857377052307
0.06237175315618515
0.07755403965711594
0.1483057737350464
0.21792539954185486
0.2855727970600128
0.35020899772644043
0.4105847477912903
0.4652835726737976
0.5128157138824463
0.5517467260360718
0.5808561444282532
0.5992540121078491
0.6064685583114624
0.6024709343910217
0.5876396894454956
0.5626877546310425
0.5285748839378357
0.4864151179790497
0.4373954236507416
0.3827078640460968
0.3234974145889282
0.26081040501594543
0.19555747509002686
0.12848559021949768
0.060173965990543365
-0.0089363232254982
-0.07847488671541214
-0.14803153276443481
-0.2170281708240509
-0.2846049964427948
-0.34955137968063354
-0.4103395640850067
-0.4652387797832489
-0.5125038027763367
-0.5505931973457336
-0.5783383250236511
-0.5950497388839722
-0.6005279421806335
-0.5950084924697876
-0.5790552496910095
-0.5534499287605286
-0.5190843939781189
-0.4768824279308319
-0.42775818705558777
-0.3725908398628235
-0.31223005056381226
-0.24750813841819763
-0.17924955487251282
-0.1082872822880745
-0.03548026829957962
0.038266949355602264
0.11196925491094589
0.1845373511314392
0.2547767758369446
0.3214064836502075
0.3831285834312439
0.43870222568511963
0.4870279133319855
0.5271978378295898
0.5585129261016846
0.5804724097251892
0.592738687992096
0.595112681388855
0.587528645992279
0.5700729489326477
0.5430217981338501
0.5068825483322144
0.46241167187690735
0.4105975329875946
0.3525943458080292
0.2896302342414856
0.22291547060012817
0.15357109904289246
0.08260075002908707
0.010892905294895172
-0.06074471026659012
-0.13154661655426025
-0.2007448375225067
-0.2675374448299408
-0.3310582935810089
-0.3903697729110718
-0.4444681704044342
-0.4923040568828583
-0.5328282713890076
-0.5650402903556824
-0.5880635380744934
-0.6012015342712402
-0.6040059328079224
-0.5963178873062134
-0.5782846808433533
-0.5503482222557068
-0.5132129788398743
-0.4677794277667999
-0.41507694125175476
-0.356185644865036
-0.2921697497367859
-0.224028080701828
-0.15265434980392456
-0.07883194833993912
-0.003238953649997711
0.07353775948286057
0.08321540802717209
0.16736391186714172
0.25053513050079346
0.33143866062164307
0.408547043800354
0.4801321029663086
0.5443747043609619
0.5994990468025208
0.6439478993415833
0.676529049873352
0.6965107321739197
0.7036626935005188
0.6982160806655884
0.6807832717895508
0.6522473692893982
0.6136558055877686
0.5661311745643616
0.510804295539856
0.4487667381763458
0.38105201721191406
0.30861538648605347
0.2323354184627533
0.1530131697654724
0.07139278203248978
-0.011790283024311066
-0.0957471951842308
-0.17954480648040771
-0.26202231645584106
-0.34175005555152893
-0.41704612970352173
-0.4860819876194
-0.5470466017723083
-0.5983348488807678
-0.6387068629264832
-0.6673794388771057
-0.6840415596961975
-0.6887937784194946
-0.6820467114448547
-0.6644094586372375
-0.6365828514099121
-0.5992807149887085
-0.5531924366950989
-0.4989745318889618
-0.437277227640152
-0.36879175901412964
-0.294293612241745
-0.214686781167984
-0.13102364540100098
-0.044512756168842316
0.043487511575222015
0.13148361444473267
0.21787896752357483
0.3010269105434418
0.37929821014404297
0.45116564631462097
0.5152813196182251
0.5705268979072571
0.6160355806350708
0.6511762738227844
0.6755149960517883
0.6887794137001038
0.6908258199691772
0.6816310882568359
0.66131192445755
0.6301609873771667
0.5886861681938171
0.537646472454071
0.47805437445640564
0.41113781929016113
0.3382626473903656
0.26083195209503174
0.18019410967826843
0.09758252650499344
0.014095835387706757
-0.06928849965333939
-0.15166646242141724
-0.23215645551681519
-0.3098545968532562
-0.3837870955467224
-0.45289912819862366
-0.5160486102104187
-0.572027862071991
-0.6196101903915405
-0.657609760761261
-0.684960126876831
-0.7007924914360046
-0.7045131921768188
-0.6958543062210083
-0.674916684627533
-0.6421611905097961
-0.5983893275260925
-0.5446734428405762
-0.48228970170021057
-0.41262194514274597
-0.3370775282382965
-0.2570156753063202
-0.17368844151496887
-0.08821282535791397
-0.0015604719519615173
0.08543004840612411
0.08879994601011276
0.18545809388160706
0.28104522824287415
0.37378963828086853
0.46170178055763245
0.5426653623580933
0.614592969417572
0.6755937933921814
0.7241416573524475
0.7591961026191711
0.7802495956420898
0.787312388420105
0.7808300852775574
0.7615638971328735
0.7304739356040955
0.688602864742279
0.6369975209236145
0.5766575932502747
0.508517861366272
0.433456689119339
0.3523164391517639
0.2659386694431305
0.17520713806152344
0.08109276741743088
-0.015292473137378693
-0.11264828592538834
-0.20944294333457947
-0.30391278862953186
-0.39410200715065
-0.47797903418540955
-0.5535817742347717
-0.6191911697387695
-0.6734711527824402
-0.7155460715293884
-0.74500572681427
-0.7618463039398193
-0.7663649320602417
-0.759047269821167
-0.7404556274414062
-0.7111468315124512
-0.6716219186782837
-0.6223191618919373
-0.5636486411094666
-0.4960518181324005
-0.4200901985168457
-0.33652758598327637
-0.24638792872428894
-0.1509871482849121
-0.05192125588655472
0.04897923022508621
0.14972230792045593
0.24824991822242737
0.3425408899784088
0.4307146966457367
0.5111168622970581
0.5823716521263123
0.6433978080749512
0.6933911442756653
0.7317836880683899
0.7581978440284729
0.7724055647850037
0.7743046879768372
0.763910174369812
0.741369366645813
0.7069882750511169
0.6612668633460999
0.6049335598945618
0.5389702320098877
0.4645933210849762
0.3832167088985443
0.2963622510433197
0.20556527376174927
0.11228939145803452
0.017874278128147125
-0.07647117227315903
-0.16964200139045715
-0.2605881989002228
-0.3482564091682434
-0.43154895305633545
-0.5092905163764954
-0.5802274346351624
-0.6430467963218689
-0.6964178085327148
-0.7390586733818054
-0.7698124051094055
-0.7877237200737
-0.7921174168586731
-0.7826594710350037
-0.7593932747840881
-0.7227558493614197
-0.6735631823539734
-0.6129629015922546
-0.5423681139945984
-0.46336910128593445
-0.37764212489128113
-0.2868596017360687
-0.19261154532432556
-0.09635535627603531
0.0006141737103462219
0.09717685729265213
0.09465938061475754
0.20251134037971497
0.3089136481285095
0.4116424024105072
0.5083242654800415
0.5965932011604309
0.6742556691169739
0.7394680976867676
0.7908632159233093
0.8276207447052002
0.8494663834571838
0.8566048741340637
0.8496173620223999
0.8293271660804749
0.7966799139976501
0.7526378631591797
0.698110818862915
0.6339251399040222
0.5608282089233398
0.47952887415885925
0.39075586199760437
0.29533830285072327
0.1942831575870514
0.08884742110967636
-0.01941315084695816
-0.1286316215991974
-0.23666933178901672
-0.34120455384254456
-0.4398781359195709
-0.5304633378982544
-0.611031174659729
-0.6800870895385742
-0.7366237044334412
-0.7801207900047302
-0.8104714751243591
-0.8278769850730896
-0.8327246904373169
-0.8254757523536682
-0.8065744042396545
-0.7763895988464355
-0.7351937294006348
-0.6831870675086975
-0.6205629110336304
-0.547603189945221
-0.46480318903923035
-0.3729710578918457
-0.27330896258354187
-0.16743409633636475
-0.05734040588140488
0.0546950027346611
0.1662445366382599
0.2748767137527466
0.3783062994480133
0.474505752325058
0.5617765784263611
0.6387665271759033
0.7044531106948853
0.75809246301651
0.7991701364517212
0.8273463845252991
0.8424277901649475
0.8443444967269897
0.8331481218338013
0.8090143799781799
0.7722637057304382
0.7233819961547852
0.6630516648292542
0.592182457447052
0.5119205117225647
0.4236379861831665
0.328886479139328
0.22931894659996033
0.12659797072410583
0.022318579256534576
-0.08203344792127609
-0.18508443236351013
-0.2855455279350281
-0.3821650445461273
-0.47368165850639343
-0.5587977766990662
-0.6361704468727112
-0.7044292092323303
-0.7622178792953491
-0.8082478046417236
-0.8413680195808411
-0.8606305122375488
-0.8653553128242493
-0.8551826477050781
-0.8301128149032593
-0.7905310988426208
-0.7372018694877625
-0.6712554693222046
-0.5941334962844849
-0.5075242519378662
-0.41327396035194397
-0.3132983148097992
-0.20948383212089539
-0.10361439734697342
0.0026809945702552795
0.10796911269426346
0.10090457648038864
0.21815964579582214
0.3333282768726349
0.44381266832351685
0.5469927787780762
0.6404094696044922
0.7219299077987671
0.7898823618888855
0.8431289196014404
0.8810816407203674
0.9036535620689392
0.9111724495887756
0.9042620658874512
0.8837202787399292
0.8504056930541992
0.8051432967185974
0.7486727833747864
0.6816303730010986
0.604578971862793
0.5180723667144775
0.4227597117424011
0.31950217485427856
0.20948320627212524
0.09429847449064255
-0.024020083248615265
-0.1430499255657196
-0.26010921597480774
-0.37244799733161926
-0.47746458649635315
-0.5729091167449951
-0.657015323638916
-0.7285706400871277
-0.7868933081626892
-0.8317485451698303
-0.8632311820983887
-0.8816384673118591
-0.8873471617698669
-0.8807154893875122
-0.8620173335075378
-0.8314113020896912
-0.7889456748962402
-0.7346126437187195
-0.6684454083442688
-0.5906386971473694
-0.5016974806785583
-0.4025523364543915
-0.29463788866996765
-0.1798906922340393
-0.06067431718111038
0.060363493859767914
0.18046820163726807
0.2969675064086914
0.4074298143386841
0.5097678303718567
0.6022863388061523
0.6836733222007751
0.7529545426368713
0.8094310760498047
0.8526220917701721
0.8822208046913147
0.8980624079704285
0.9001116156578064
0.8884555101394653
0.8632991909980774
0.8249761462211609
0.7739567160606384
0.7108721137046814
0.6365399956703186
0.5519950985908508
0.45850661396980286
0.35757046937942505
0.2508701980113983
0.14020320773124695
0.027400903403759003
-0.08575624972581863
-0.19757288694381714
-0.30645501613616943
-0.41088739037513733
-0.509408175945282
-0.6005855798721313
-0.6830040216445923
-0.7552838921546936
-0.8161095380783081
-0.8642688393592834
-0.8987048864364624
-0.9185594320297241
-0.9232172966003418
-0.9123435616493225
-0.8859211802482605
-0.844269335269928
-0.7880652546882629
-0.7183442711830139
-0.6364835500717163
-0.5441602468490601
-0.44328734278678894
-0.33593031764030457
-0.22420695424079895
-0.11019324511289597
0.004162214696407318
0.11709830909967422
0.10736488550901413
0.23177137970924377
0.3532734811306
0.4690338969230652
0.576353132724762
0.6728388071060181
0.756543755531311
0.8260365128517151
0.8804205656051636
0.9192976355552673
0.9426948428153992
0.9509695172309875
0.9447013735771179
0.9245844483375549
0.8913339972496033
0.8456053137779236
0.7879587411880493
0.718852698802948
0.6386958360671997
0.5479419231414795
0.44722095131874084
0.3374919295310974
0.22017601132392883
0.09723012894392014
-0.028855957090854645
-0.15519025921821594
-0.2786963880062103
-0.39637789130210876
-0.5055779814720154
-0.6041575074195862
-0.6905869841575623
-0.7639300227165222
-0.8237579464912415
-0.8700205087661743
-0.9029037952423096
-0.922696053981781
-0.9296819567680359
-0.9240636229515076
-0.9059150815010071
-0.8751814961433411
-0.8317118883132935
-0.7753427028656006
-0.7060181498527527
-0.623936116695404
-0.5297025442123413
-0.4244447946548462
-0.3098638653755188
-0.18819987773895264
-0.062109194695949554
0.06551005691289902
0.1917305886745453
0.3137759864330292
0.42917492985725403
0.5358396172523499
0.6320928931236267
0.7166404724121094
0.7885262370109558
0.8470675945281982
0.8918036818504333
0.9224554896354675
0.9388945698738098
0.9411252737045288
0.9292734861373901
0.9035778641700745
0.864382266998291
0.8121412396430969
0.7474339604377747
0.6709856986999512
0.5837041735649109
0.48672184348106384
0.38141781091690063
0.2694249451160431
0.15259337425231934
0.032924555242061615
-0.08752230554819107
-0.2067122757434845
-0.3226969540119171
-0.4336498975753784
-0.5378623604774475
-0.6337479948997498
-0.7198324799537659
-0.7947613596916199
-0.8573150038719177
-0.9064239263534546
-0.9411942362785339
-0.9609232544898987
-0.9651196599006653
-0.9535203576087952
-0.9261156916618347
-0.8831714987754822
-0.8252575993537903
-0.7532732486724854
-0.6684589385986328
-0.5723903775215149
-0.46694615483283997
-0.35423946380615234
-0.23653274774551392
-0.11612846702337265
0.00473504513502121