# vtk DataFile Version 3.0
2D PINN Solution
ASCII
DATASET STRUCTURED_GRID
DIMENSIONS 100 100 1
POINTS 10000 float
-1.0 -1.0 0.0
-0.9797979797979798 -1.0 0.0
-0.9595959595959596 -1.0 0.0
-0.9393939393939394 -1.0 0.0
-0.9191919191919192 -1.0 0.0
-0.898989898989899 -1.0 0.0
-0.8787878787878788 -1.0 0.0
-0.8585858585858586 -1.0 0.0
-0.8383838383838383 -1.0 0.0
-0.8181818181818181 -1.0 0.0
-0.797979797979798 -1.0 0.0
-0.7777777777777778 -1.0 0.0
-0.7575757575757576 -1.0 0.0
-0.7373737373737373 -1.0 0.0
-0.7171717171717171 -1.0 0.0
-0.696969696969697 -1.0 0.0
-0.6767676767676767 -1.0 0.0
-0.6565656565656566 -1.0 0.0
-0.6363636363636364 -1.0 0.0
-0.6161616161616161 -1.0 0.0
-0.5959595959595959 -1.0 0.0
-0.5757575757575757 -1.0 0.0
-0.5555555555555556 -1.0 0.0
-0.5353535353535352 -1.0 0.0
-0.5151515151515151 -1.0 0.0
-0.4949494949494949 -1.0 0.0
-0.4747474747474747 -1.0 0.0
-0.4545454545454545 -1.0 0.0
-0.43434343434343425 -1.0 0.0
-0.41414141414141414 -1.0 0.0
-0.3939393939393939 -1.0 0.0
-0.3737373737373737 -1.0 0.0
-0.3535353535353535 -1.0 0.0
-0.33333333333333326 -1.0 0.0
-0.31313131313131304 -1.0 0.0
-0.2929292929292928 -1.0 0.0
-0.2727272727272727 -1.0 0.0
-0.2525252525252525 -1.0 0.0
-0.23232323232323226 -1.0 0.0
-0.21212121212121204 -1.0 0.0
-0.19191919191919182 -1.0 0.0
-0.1717171717171716 -1.0 0.0
-0.1515151515151515 -1.0 0.0
-0.13131313131313127 -1.0 0.0
-0.11111111111111105 -1.0 0.0
-0.09090909090909083 -1.0 0.0
-0.07070707070707061 -1.0 0.0
-0.050505050505050386 -1.0 0.0
-0.030303030303030276 -1.0 0.0
-0.010101010101010055 -1.0 0.0
0.010101010101010166 -1.0 0.0
0.030303030303030498 -1.0 0.0
0.05050505050505061 -1.0 0.0
0.07070707070707072 -1.0 0.0
0.09090909090909105 -1.0 0.0
0.11111111111111116 -1.0 0.0
0.1313131313131315 -1.0 0.0
0.1515151515151516 -1.0 0.0
0.1717171717171717 -1.0 0.0
0.19191919191919204 -1.0 0.0
0.21212121212121215 -1.0 0.0
0.2323232323232325 -1.0 0.0
0.2525252525252526 -1.0 0.0
0.27272727272727293 -1.0 0.0
0.29292929292929304 -1.0 0.0
0.31313131313131315 -1.0 0.0
0.3333333333333335 -1.0 0.0
0.3535353535353536 -1.0 0.0
0.3737373737373739 -1.0 0.0
0.39393939393939403 -1.0 0.0
0.41414141414141437 -1.0 0.0
0.4343434343434345 -1.0 0.0
0.4545454545454546 -1.0 0.0
0.4747474747474749 -1.0 0.0
0.49494949494949503 -1.0 0.0
0.5151515151515154 -1.0 0.0
0.5353535353535355 -1.0 0.0
0.5555555555555556 -1.0 0.0
0.5757575757575759 -1.0 0.0
0.595959595959596 -1.0 0.0
0.6161616161616164 -1.0 0.0
0.6363636363636365 -1.0 0.0
0.6565656565656568 -1.0 0.0
0.6767676767676769 -1.0 0.0
0.696969696969697 -1.0 0.0
0.7171717171717173 -1.0 0.0
0.7373737373737375 -1.0 0.0
0.7575757575757578 -1.0 0.0
0.7777777777777779 -1.0 0.0
0.7979797979797982 -1.0 0.0
0.8181818181818183 -1.0 0.0
0.8383838383838385 -1.0 0.0
0.8585858585858588 -1.0 0.0
0.8787878787878789 -1.0 0.0
0.8989898989898992 -1.0 0.0
0.9191919191919193 -1.0 0.0
0.9393939393939394 -1.0 0.0
0.9595959595959598 -1.0 0.0
0.9797979797979799 -1.0 0.0
1.0 -1.0 0.0
-1.0 -0.9797979797979798 0.0
-0.9797979797979798 -0.9797979797979798 0.0
-0.9595959595959596 -0.9797979797979798 0.0
-0.9393939393939394 -0.9797979797979798 0.0
-0.9191919191919192 -0.9797979797979798 0.0
-0.898989898989899 -0.9797979797979798 0.0
-0.8787878787878788 -0.9797979797979798 0.0
-0.8585858585858586 -0.9797979797979798 0.0
-0.8383838383838383 -0.9797979797979798 0.0
-0.8181818181818181 -0.9797979797979798 0.0
-0.797979797979798 -0.9797979797979798 0.0
-0.7777777777777778 -0.9797979797979798 0.0
-0.7575757575757576 -0.9797979797979798 0.0
-0.7373737373737373 -0.9797979797979798 0.0
-0.7171717171717171 -0.9797979797979798 0.0
-0.696969696969697 -0.9797979797979798 0.0
-0.6767676767676767 -0.9797979797979798 0.0
-0.6565656565656566 -0.9797979797979798 0.0
-0.6363636363636364 -0.9797979797979798 0.0
-0.6161616161616161 -0.9797979797979798 0.0
-0.5959595959595959 -0.9797979797979798 0.0
-0.5757575757575757 -0.9797979797979798 0.0
-0.5555555555555556 -0.9797979797979798 0.0
-0.5353535353535352 -0.9797979797979798 0.0
-0.5151515151515151 -0.9797979797979798 0.0
-0.4949494949494949 -0.9797979797979798 0.0
-0.4747474747474747 -0.9797979797979798 0.0
-0.4545454545454545 -0.9797979797979798 0.0
-0.43434343434343425 -0.9797979797979798 0.0
-0.41414141414141414 -0.9797979797979798 0.0
-0.3939393939393939 -0.9797979797979798 0.0
-0.3737373737373737 -0.9797979797979798 0.0
-0.3535353535353535 -0.9797979797979798 0.0
-0.33333333333333326 -0.9797979797979798 0.0
-0.31313131313131304 -0.9797979797979798 0.0
-0.2929292929292928 -0.9797979797979798 0.0
-0.2727272727272727 -0.9797979797979798 0.0
-0.2525252525252525 -0.9797979797979798 0.0
-0.23232323232323226 -0.9797979797979798 0.0
-0.21212121212121204 -0.9797979797979798 0.0
-0.19191919191919182 -0.9797979797979798 0.0
-0.1717171717171716 -0.9797979797979798 0.0
-0.1515151515151515 -0.9797979797979798 0.0
-0.13131313131313127 -0.9797979797979798 0.0
-0.11111111111111105 -0.9797979797979798 0.0
-0.09090909090909083 -0.9797979797979798 0.0
-0.07070707070707061 -0.9797979797979798 0.0
-0.050505050505050386 -0.9797979797979798 0.0
-0.030303030303030276 -0.9797979797979798 0.0
-0.010101010101010055 -0.9797979797979798 0.0
0.010101010101010166 -0.9797979797979798 0.0
0.030303030303030498 -0.9797979797979798 0.0
0.05050505050505061 -0.9797979797979798 0.0
0.07070707070707072 -0.9797979797979798 0.0
0.09090909090909105 -0.9797979797979798 0.0
0.11111111111111116 -0.9797979797979798 0.0
0.1313131313131315 -0.9797979797979798 0.0
0.1515151515151516 -0.9797979797979798 0.0
0.1717171717171717 -0.9797979797979798 0.0
0.19191919191919204 -0.9797979797979798 0.0
0.21212121212121215 -0.9797979797979798 0.0
0.2323232323232325 -0.9797979797979798 0.0
0.2525252525252526 -0.9797979797979798 0.0
0.27272727272727293 -0.9797979797979798 0.0
0.29292929292929304 -0.9797979797979798 0.0
0.31313131313131315 -0.9797979797979798 0.0
0.3333333333333335 -0.9797979797979798 0.0
0.3535353535353536 -0.9797979797979798 0.0
0.3737373737373739 -0.9797979797979798 0.0
0.39393939393939403 -0.9797979797979798 0.0
0.41414141414141437 -0.9797979797979798 0.0
0.4343434343434345 -0.9797979797979798 0.0
0.4545454545454546 -0.9797979797979798 0.0
0.4747474747474749 -0.9797979797979798 0.0
0.49494949494949503 -0.9797979797979798 0.0
0.5151515151515154 -0.9797979797979798 0.0
0.5353535353535355 -0.9797979797979798 0.0
0.5555555555555556 -0.9797979797979798 0.0
0.5757575757575759 -0.9797979797979798 0.0
0.595959595959596 -0.9797979797979798 0.0
0.6161616161616164 -0.9797979797979798 0.0
0.6363636363636365 -0.9797979797979798 0.0
0.6565656565656568 -0.9797979797979798 0.0
0.6767676767676769 -0.9797979797979798 0.0
0.696969696969697 -0.9797979797979798 0.0
0.7171717171717173 -0.9797979797979798 0.0
0.7373737373737375 -0.9797979797979798 0.0
0.7575757575757578 -0.9797979797979798 0.0
0.7777777777777779 -0.9797979797979798 0.0
0.7979797979797982 -0.9797979797979798 0.0
0.8181818181818183 -0.9797979797979798 0.0
0.8383838383838385 -0.9797979797979798 0.0
0.8585858585858588 -0.9797979797979798 0.0
0.8787878787878789 -0.9797979797979798 0.0
0.8989898989898992 -0.9797979797979798 0.0
0.9191919191919193 -0.9797979797979798 0.0
0.9393939393939394 -0.9797979797979798 0.0
0.9595959595959598 -0.9797979797979798 0.0
0.9797979797979799 -0.9797979797979798 0.0
1.0 -0.9797979797979798 0.0
-1.0 -0.9595959595959596 0.0
-0.9797979797979798 -0.9595959595959596 0.0
-0.9595959595959596 -0.9595959595959596 0.0
-0.9393939393939394 -0.9595959595959596 0.0
-0.9191919191919192 -0.9595959595959596 0.0
-0.898989898989899 -0.9595959595959596 0.0
-0.8787878787878788 -0.9595959595959596 0.0
-0.8585858585858586 -0.9595959595959596 0.0
-0.8383838383838383 -0.9595959595959596 0.0
-0.8181818181818181 -0.9595959595959596 0.0
-0.797979797979798 -0.9595959595959596 0.0
-0.7777777777777778 -0.9595959595959596 0.0
-0.7575757575757576 -0.9595959595959596 0.0
-0.7373737373737373 -0.9595959595959596 0.0
-0.7171717171717171 -0.9595959595959596 0.0
-0.696969696969697 -0.9595959595959596 0.0
-0.6767676767676767 -0.9595959595959596 0.0
-0.6565656565656566 -0.9595959595959596 0.0
-0.6363636363636364 -0.9595959595959596 0.0
-0.6161616161616161 -0.9595959595959596 0.0
-0.5959595959595959 -0.9595959595959596 0.0
-0.5757575757575757 -0.9595959595959596 0.0
-0.5555555555555556 -0.9595959595959596 0.0
-0.5353535353535352 -0.9595959595959596 0.0
-0.5151515151515151 -0.9595959595959596 0.0
-0.4949494949494949 -0.9595959595959596 0.0
-0.4747474747474747 -0.9595959595959596 0.0
-0.4545454545454545 -0.9595959595959596 0.0
-0.43434343434343425 -0.9595959595959596 0.0
-0.41414141414141414 -0.9595959595959596 0.0
-0.3939393939393939 -0.9595959595959596 0.0
-0.3737373737373737 -0.9595959595959596 0.0
-0.3535353535353535 -0.9595959595959596 0.0
-0.33333333333333326 -0.9595959595959596 0.0
-0.31313131313131304 -0.9595959595959596 0.0
-0.2929292929292928 -0.9595959595959596 0.0
-0.2727272727272727 -0.9595959595959596 0.0
-0.2525252525252525 -0.9595959595959596 0.0
-0.23232323232323226 -0.9595959595959596 0.0
-0.21212121212121204 -0.9595959595959596 0.0
-0.19191919191919182 -0.9595959595959596 0.0
-0.1717171717171716 -0.9595959595959596 0.0
-0.1515151515151515 -0.9595959595959596 0.0
-0.13131313131313127 -0.9595959595959596 0.0
-0.11111111111111105 -0.9595959595959596 0.0
-0.09090909090909083 -0.9595959595959596 0.0
-0.07070707070707061 -0.9595959595959596 0.0
-0.050505050505050386 -0.9595959595959596 0.0
-0.030303030303030276 -0.9595959595959596 0.0
-0.010101010101010055 -0.9595959595959596 0.0
0.010101010101010166 -0.9595959595959596 0.0
0.030303030303030498 -0.9595959595959596 0.0
0.05050505050505061 -0.9595959595959596 0.0
0.07070707070707072 -0.9595959595959596 0.0
0.09090909090909105 -0.9595959595959596 0.0
0.11111111111111116 -0.9595959595959596 0.0
0.1313131313131315 -0.9595959595959596 0.0
0.1515151515151516 -0.9595959595959596 0.0
0.1717171717171717 -0.9595959595959596 0.0
0.19191919191919204 -0.9595959595959596 0.0
0.21212121212121215 -0.9595959595959596 0.0
[...]
POINT_DATA 10000
SCALARS u float 1
LOOKUP_TABLE default
0.4739336669445038
0.5381561517715454
0.593431830406189
0.6381920576095581
0.6712196469306946
0.6917539238929749
0.6995262503623962
0.6947343945503235
0.6779630780220032
0.650077223777771
0.6121184825897217
0.5652093291282654
0.5104857087135315
0.44905146956443787
0.3819500803947449
0.3101506531238556
0.23453670740127563
0.15591084957122803
0.07501145452260971
-0.0074434950947761536
-0.09069322794675827
-0.17384275794029236
-0.2557765543460846
-0.3351084589958191
-0.4101924002170563
-0.47921696305274963
-0.5403696894645691
-0.5920202136039734
-0.6328884363174438
-0.6621478796005249
-0.6794419884681702
-0.6848360896110535
-0.678721010684967
-0.6616964340209961
-0.6344635486602783
-0.5977492332458496
-0.5522566437721252
-0.4986564815044403
-0.4376126229763031
-0.3698194921016693
-0.29605230689048767
-0.21720299124717712
-0.13430777192115784
-0.04854806512594223
0.0387427881360054
0.1261012852191925
0.21195578575134277
0.2946787476539612
0.37265172600746155
0.4443496763706207
0.5084191560745239
0.5637343525886536
0.6094189286231995
0.6448355317115784
0.6695465445518494
0.683275043964386
0.6858748197555542
0.6773172616958618
0.6577103734016418
0.6273312568664551
0.5866724848747253
0.5364751219749451
0.47773250937461853
0.41165655851364136
0.3395995795726776
0.2629534900188446
0.18306034803390503
0.10114579647779465
0.018302403390407562
-0.06449735909700394
-0.14635497331619263
-0.22639739513397217
-0.30372604727745056
-0.37737953662872314
-0.4463103115558624
-0.5093829035758972
-0.5654017925262451
-0.6131421327590942
-0.651422917842865
-0.6791746616363525
-0.6955243349075317
-0.6998637318611145
-0.6919196248054504
-0.6717678904533386
-0.6398549675941467
-0.5969590544700623
-0.544136106967926
-0.48263993859291077
-0.41383570432662964
-0.3391146659851074
-0.2598209083080292
-0.1771937608718872
-0.09234263747930527
-0.006230242550373077
0.08030649274587631
0.1665438711643219
0.2518390119075775
0.3356001675128937
0.4172760248184204
0.49633660912513733
0.5364266037940979
0.6085147857666016
0.6698418259620667
0.71885746717453
0.7544869184494019
0.7761848568916321
0.783925473690033
0.7781237363815308
0.7595218420028687
0.7290697693824768
0.6878104209899902
0.6367992758750916
0.5770460963249207
0.5095038414001465
0.4350602626800537
0.35456955432891846
0.2688758373260498
0.17885681986808777
0.08546566218137741
-0.010214708745479584
-0.10692291706800461
-0.20317348837852478
-0.2972443401813507
-0.38721975684165955
-0.4710821211338043
-0.546869158744812
-0.6128377914428711
-0.6676148176193237
-0.710278332233429
-0.7403754591941833
-0.7578652501106262
-0.7630228400230408
-0.7563242316246033
-0.7383307814598083
-0.7096105813980103
-0.6706798672676086
-0.6219931244850159
-0.5639724731445312
-0.4970684349536896
-0.4218410849571228
-0.33904218673706055
-0.24967721104621887
-0.15503516793251038
-0.0566815510392189
0.043586038053035736
0.14379936456680298
0.24191898107528687
0.33593329787254333
0.4239625036716461
0.5043430924415588
0.5756892561912537
0.6369085311889648
0.6871868968009949
0.7259511351585388
0.7528190016746521
0.7675620317459106
0.7700724005699158
0.7603601813316345
0.7385624051094055
0.7049707770347595
0.66007000207901
0.6045725345611572
0.5394420027732849
0.46588143706321716
0.38529208302497864
0.2991841733455658
0.2090868353843689
0.11645688861608505
0.022629566490650177
-0.0711958035826683
-0.1639181673526764
-0.2544974386692047
-0.3418884575366974
-0.425001859664917
-0.502673327922821
-0.5736536383628845
-0.6366351246833801
-0.6902897357940674
-0.7333323359489441
-0.7645988464355469
-0.7831236124038696
-0.7882179617881775
-0.7795299887657166
-0.7570868730545044
-0.7213062644004822
-0.6729859113693237
-0.6132564544677734
-0.5435130000114441
-0.4653320610523224
-0.3803749978542328
-0.29030007123947144
-0.19668880105018616
-0.10098779946565628
-0.004487417638301849
0.09169552475214005
0.18659603595733643
0.2793859839439392
0.3693496286869049
0.45585837960243225
0.5383589267730713
0.5904783010482788
0.6684717535972595
0.7341629862785339
0.786150336265564
0.8235740065574646
0.8461214900016785
0.8539653420448303
0.8476643562316895
0.828029215335846
0.7960034012794495
0.7525555491447449
0.6986086964607239
0.6350044012069702
0.5625061392784119
0.4818350672721863
0.3937270939350128
0.29900649189949036
0.19866445660591125
0.09392880648374557
-0.013682849705219269
-0.12235287576913834
-0.2299867570400238
-0.3342989385128021
-0.4329506754875183
-0.5237138867378235
-0.6046381592750549
-0.6741887331008911
-0.7313156723976135
-0.7754553556442261
-0.8064640164375305
-0.8245176672935486
-0.8299930095672607
-0.8233492374420166
-0.8050397634506226
-0.7754479646682739
-0.7348641157150269
-0.6835039258003235
-0.6215677261352539
-0.5493428111076355
-0.4673103392124176
-0.3762594163417816
-0.27736538648605347
-0.17221033573150635
-0.0627550557255745
0.048751212656497955
0.15990006923675537
0.2682717442512512
0.3715777099132538
0.467781126499176
0.5551674962043762
0.6323734521865845
0.6983629465103149
0.7523859739303589
0.7939208149909973
0.8226268887519836
0.8383060097694397
0.8408836126327515
0.830403745174408
0.8070322871208191
0.7710766196250916
0.7230075597763062
0.6634956002235413
0.5934325456619263
0.5139530897140503
0.42641839385032654
0.33237066864967346
0.2334541380405426
0.13132405281066895
0.027569450438022614
-0.0763312354683876
-0.17901381850242615
-0.2791968882083893
-0.3756398856639862
-0.46708813309669495
-0.5522529482841492
-0.6297950744628906
-0.6983447670936584
-0.7565433382987976
-0.8030926585197449
-0.8368297815322876
-0.8567919135093689
-0.8622811436653137
-0.8529200553894043
-0.8286925554275513
-0.7899637222290039
-0.7374849915504456
-0.6723715662956238
-0.5960507988929749
-0.5101986527442932
-0.41665253043174744
-0.31731221079826355
-0.21405956149101257
-0.10867122560739517
-0.002767793834209442
0.10221787542104721
0.20505023002624512
0.30468592047691345
0.4002515971660614
0.4910285174846649
0.5764315724372864
0.6345779299736023
0.7165760397911072
0.785125195980072
0.8390493988990784
0.8777220845222473
0.9010224938392639
0.9092524647712708
0.9030207991600037
0.8831210136413574
0.8504136204719543
0.8057355880737305
0.7498412728309631
0.6833846569061279
0.606942355632782
0.5210789442062378
0.4264427721500397
0.32388144731521606
0.21455290913581848
0.10001402348279953
-0.01775137335062027
-0.13636919856071472
-0.2531949579715729
-0.36550018191337585
-0.4706861674785614
-0.5664780735969543
-0.6510764956474304
-0.7232235670089722
-0.7821927666664124
-0.8277126550674438
-0.8598528504371643
-0.8788973689079285
-0.8852196335792542
-0.8791858553886414
-0.8610833287239075
-0.8310878276824951
-0.7892631888389587
-0.7356139421463013
-0.6701747179031372
-0.5931345820426941
-0.5049786567687988
-0.40660884976387024
-0.29942408204078674
-0.1853247880935669
-0.06664390116930008
0.0539945587515831
0.17384424805641174
0.2902318239212036
0.4007149040699005
0.5031909346580505
0.5959464907646179
0.6776575446128845
0.74733966588974
0.8042859435081482
0.8480134010314941
0.8782079815864563
0.894702672958374
0.897455096244812
0.8865408301353455
0.8621577620506287
0.8246246576309204
0.7744017243385315
0.7121060490608215
0.6385454535484314
0.5547424554824829
0.4619559049606323
0.36167362332344055
0.2555687129497528
0.14543360471725464
0.033087097108364105
-0.07969517260789871
-0.19122931361198425
-0.2999308407306671
-0.404295414686203
-0.5028679966926575
-0.5942198038101196
-0.676936686038971
-0.7496364116668701
-0.8109921813011169
-0.8597800135612488
-0.8949251770973206
-0.9155508875846863
-0.9210222363471985
-0.9109868407249451
-0.8854079842567444
-0.8445913195610046
-0.7892009019851685
-0.7202605605125427
-0.6391378045082092
-0.5474995970726013
-0.4472521245479584
-0.34045085310935974
-0.22920766472816467
-0.11559239774942398
-0.00154828280210495
0.11116432398557663
0.22101649641990662
0.32671570777893066
0.42720767855644226
0.5216572284698486
0.6094310879707336
0.6674282550811768
0.7517223954200745
0.8218922019004822
0.8770025372505188
0.9166207909584045
0.9407486319541931
0.9497259855270386
0.9441227316856384
0.9246352910995483
0.8919845223426819
0.8468409776687622
0.7897781729698181
0.7212707996368408
0.641739010810852
0.5516400337219238
0.45159628987312317
0.3425430655479431
0.22586321830749512
0.10347112268209457
-0.022194184362888336
-0.14828360080718994
-0.27174296975135803
-0.3895799517631531
-0.49911782145500183
-0.5981836915016174
-0.685202956199646
-0.7591953277587891
-0.819694459438324
-0.8666233420372009
-0.900152862071991
-0.9205682277679443
-0.9281608462333679
-0.9231424331665039
-0.9056043028831482
-0.8755087852478027
-0.8327167630195618
-0.7770709991455078
-0.7085075378417969
-0.6272104978561401
-0.5337551236152649
-0.42923370003700256
-0.31530889868736267
-0.194187730550766
-0.06850162893533707
0.05886252969503403
0.18497401475906372
0.3070486783981323
0.42259708046913147
0.5295149683952332
0.6261075139045715
0.7110728621482849
0.783443033695221
0.8425319790840149
0.8878733515739441
0.9191819429397583
0.9363206624984741
0.9392876625061035
0.9281966090202332
0.9032754898071289
0.8648587465286255
0.8133901357650757
0.7494376301765442
0.6737179160118103
0.5871307849884033
0.4907979667186737
0.3860907256603241
0.27463188767433167
0.15826475620269775
0.03897786885499954
-0.0811779573559761
-0.2001802623271942
-0.31609123945236206
-0.42709165811538696
-0.5314783453941345
-0.6276671886444092
-0.7141786217689514
-0.7896498441696167
-0.8528456091880798
-0.902679443359375
-0.9382357001304626
-0.9587908387184143
-0.9638335108757019
-0.953080952167511
-0.9265086054801941
-0.8843687772750854
-0.8272203803062439
-0.755954384803772
-0.671805202960968
-0.5763417482376099
-0.47143617272377014
-0.3591974675655365
-0.24188295006752014
-0.1217896118760109
-0.0011512413620948792
0.11796068400144577
0.23370999097824097
0.3445344865322113
0.4491729438304901
0.5466504693031311
0.6362610459327698
0.6880760192871094
0.7732280492782593
0.8440702557563782
0.8998706936836243
0.9403187036514282
0.9654452800750732
0.9755386710166931
0.9710508584976196
0.9525172710418701
0.9204801917076111
0.8754263520240784
0.8177611231803894
0.7478177547454834
0.6659202575683594
0.5724970698356628
0.4682336747646332
0.35423246026039124
0.23215019702911377
0.10425113886594772
-0.026655174791812897
-0.157396137714386
-0.28471431136131287
-0.40556174516677856
-0.5173576474189758
-0.6181210279464722
-0.7065163254737854
-0.7817823886871338
-0.8436102867126465
-0.8919997811317444
-0.9271135926246643
-0.949152410030365
-0.9582617878913879
-0.9544691443443298
-0.9376634955406189
-0.9076090455055237
-0.8640097379684448
-0.8066135048866272
-0.7353495955467224
-0.6504881978034973
-0.5527879595756531
-0.4435845911502838
-0.32481178641319275
-0.1989213526248932
-0.06872958689928055
0.06277485936880112
0.19263362884521484
0.3180813789367676
0.43666696548461914
0.5463132262229919
0.645330548286438
0.7323994040489197
0.8065328598022461
0.8670281767845154
0.9134232997894287
0.9454564452171326
0.9630330204963684
0.9661968350410461
0.9551085829734802
0.9300289154052734
0.8913061022758484
0.8393715023994446
0.7747482657432556
0.6980699300765991
0.6101186871528625
0.511874258518219
0.40456482768058777
0.28970494866371155
0.16910690069198608
0.04484327882528305
-0.080827496945858
-0.20557501912117004
-0.3271041214466095
-0.4432469308376312
-0.5520213842391968
-0.6516606211662292
-0.7406224012374878
-0.8175821900367737
-0.8814305663108826
-0.9312620759010315
-0.9663679003715515
-0.9862216114997864
-0.990476667881012
-0.9789605736732483
-0.9516884684562683
-0.9088807702064514
-0.8509979248046875
-0.77878338098526
-0.6932976841926575
-0.595947265625
-0.4884834587574005
-0.37297046184539795
-0.251710444688797
-0.12714582681655884
-0.0017310604453086853
0.12218736857175827
0.24247944355010986
0.3573133647441864
0.46519583463668823
0.564985454082489
0.6558757424354553
0.6959966421127319
0.7808530926704407
0.851674497127533
0.9078563451766968
0.9491185545921326
0.9754347205162048
0.9869542717933655
0.9839495420455933
0.9667490124702454
0.9356927275657654
0.8910873532295227
0.8332011699676514
0.7622893452644348
0.6786689758300781
0.5828453302383423
0.47566893696784973
0.35849031805992126
0.2332592010498047
0.10252638906240463
-0.030676282942295074
-0.16307005286216736
-0.29142820835113525
-0.4128513038158417
-0.5249763131141663
-0.6260574460029602
-0.7149509787559509
-0.7910188436508179
-0.853991687297821
-0.9038302302360535
-0.9405904412269592
-0.964320719242096
-0.974983274936676
-0.9724124073982239
-0.9563096165657043
-0.9262908101081848
-0.8819684982299805
-0.8230839967727661
-0.7496575713157654
-0.6621426939964294
-0.5615444183349609
-0.4494624435901642
-0.3280518651008606
-0.19990211725234985
-0.0678604319691658
0.06514569371938705
0.19627121090888977
0.3228742182254791
0.44258663058280945
0.5533618330955505
0.6534859538078308
0.7415880560874939
0.8166186213493347
0.8778316974639893
0.9247520565986633
0.95713871717453
0.9749377369880676
0.9782465100288391
0.9672787189483643
0.9423307776451111
0.9037689566612244
0.8520171642303467
0.7875592112541199
0.7109642624855042
0.6229174733161926
0.5242716073989868
0.41611629724502563
0.2998327612876892
0.17714515328407288
0.050121091306209564
-0.07887495309114456
-0.20728793740272522
-0.33251604437828064
-0.4520598351955414
-0.5636468529701233
-0.6653125286102295
-0.7554324865341187
-0.8327233195304871
-0.8962072134017944
-0.9451763033866882
-0.9791471362113953
-0.9978139996528625
-1.0010160207748413
-0.9887176156044006
-0.9610006213188171
-0.9180827736854553
-0.860347330570221
-0.7884010076522827
-0.7031214833259583
-0.6057184338569641
-0.49776336550712585
-0.38118720054626465
-0.25824129581451416
-0.13140839338302612
-0.0032759681344032288
0.12360363453626633
0.24685022234916687
0.3643750250339508
0.47444841265678406
0.575740396976471
0.6673077940940857
0.6911273002624512
0.7747777104377747
0.845061719417572
0.901412308216095
0.9434911608695984
0.9711267352104187
0.9842730760574341
0.982966959476471
0.9673059582710266
0.9374182820320129
0.8934550285339355
0.8355996012687683
0.764109194278717
0.6794043183326721
0.582187294960022
0.4735795557498932
0.3552292287349701
0.22935324907302856
0.09866928309202194
-0.03377140313386917
-0.1648251712322235
-0.2915206253528595
-0.41126856207847595
-0.5219976902008057
-0.6221807599067688
-0.710792601108551
-0.7872060537338257
-0.8510774970054626
-0.9022216796875
-0.9405109286308289
-0.9657925963401794
-0.9778261780738831
-0.9762648940086365
-0.9606689810752869
-0.9305739402770996
-0.885593056678772
-0.8255645632743835
-0.750698983669281
-0.661709189414978
-0.559872567653656
-0.4470154345035553
-0.32541385293006897
-0.19764694571495056
-0.06643237918615341
0.06550738960504532
0.19554683566093445
0.321217805147171
0.4402577579021454
0.5506384968757629
0.6506050825119019
0.738703191280365
0.8137968182563782
0.8750762939453125
0.922036349773407
0.9544399976730347
0.9722686409950256
0.975670337677002
0.96490877866745
0.940321147441864
0.9022961258888245
0.8512572050094604
0.7876672148704529
0.7120484709739685
0.6250178217887878
0.5273346304893494
0.4199717938899994
0.30418694019317627
0.1815863847732544
0.05416388064622879
-0.0757155492901802
-0.2053980827331543
-0.3320843279361725
-0.45301905274391174
-0.5656702518463135
-0.6678748726844788
-0.7579079270362854
-0.8344990611076355
-0.8967834115028381
-0.9442355036735535
-0.9765856862068176
-0.9937464594841003
-0.9957490563392639
-0.9827070832252502
-0.9547913670539856
-0.9122446179389954
-0.8554090857505798
-0.78477942943573
-0.7010715007781982
-0.605293333530426
-0.4988011419773102
-0.38333624601364136
-0.26100781559944153
-0.13423296809196472
-0.0056250616908073425
0.12215056270360947
0.24653756618499756
0.36522749066352844
0.4762709438800812
0.5781307220458984
0.6696991324424744
0.6738529801368713
0.7555479407310486
0.8248576521873474
0.8811654448509216
0.9239928126335144
0.952962338924408
0.9677786827087402
0.9682199358940125
0.9541350603103638
0.9254579544067383
0.882219672203064
0.8245872855186462
0.7529230713844299
0.6678633093833923
0.570423424243927
0.4620714485645294
0.3447605073451996
0.22089233994483948
0.09318279474973679
-0.03551457077264786
-0.16241630911827087
-0.28498509526252747
-0.40104514360427856
-0.5088397860527039
-0.6070179343223572
-0.6945833563804626
-0.770822286605835
-0.8352116346359253
-0.8873443603515625
-0.9268481135368347
-0.9533347487449646
-0.9663624167442322
-0.9654363989830017
-0.9500392079353333
-0.9197182059288025
-0.8741965889930725
-0.813518226146698
-0.7381718754768372
-0.649163007736206
-0.5480170845985413
-0.43668994307518005
-0.3174382746219635
-0.1926737129688263
-0.06484589725732803
0.06362614035606384
0.19038957357406616
0.31317436695098877
0.42982029914855957
0.5383158326148987
0.6368565559387207
0.7239012718200684
0.7982237339019775
0.8589367270469666
0.9054856896400452
0.9376184344291687
0.955329954624176
0.9588003158569336
0.9483340978622437
0.924307644367218
0.8871361613273621
0.8372573256492615
0.7751324772834778
0.701263964176178
0.6162285208702087
0.5207331776618958
0.4156699478626251
0.30219680070877075
0.18180495500564575
0.05636992305517197
-0.07183224707841873
-0.20018050074577332
-0.32582926750183105
-0.44589605927467346
-0.5576801300048828
-0.6588476300239563
-0.7475641369819641
-0.8225301504135132
-0.8829438090324402
-0.9284154772758484
-0.9588518738746643
-0.9743573069572449
-0.9751446843147278
-0.9614747166633606
-0.933623731136322
-0.8918877243995667
-0.8365997672080994
-0.7681864500045776
-0.6872353553771973
-0.5945726037025452
-0.49133816361427307
-0.3790438771247864
-0.25958994030952454
-0.1352340579032898
-0.008500687777996063
0.11794324964284897
0.24145960807800293
0.35959210991859436
0.4702010154724121
0.5715489983558655
0.6623393893241882
0.6449470520019531
0.7240063548088074
0.7918879389762878
0.8478517532348633
0.8912209272384644
0.9213671684265137
0.9377182722091675
0.9397789239883423
0.9271621108055115
0.8996332287788391
0.8571619391441345
0.7999832034111023
0.7286627292633057
0.644166886806488
0.5478973984718323
0.44169244170188904
0.3277612626552582
0.20855551958084106
0.08660682290792465
-0.03562650829553604
-0.15588811039924622
-0.27217966318130493
-0.3827861547470093
-0.4862516224384308
-0.5813486576080322
-0.6670402884483337
-0.7424450516700745
-0.8067945241928101
-0.8593959808349609
-0.8995967507362366
-0.9267608523368835
-0.9402623772621155
-0.939504086971283
-0.9239735007286072
-0.8933335542678833
-0.8475306630134583
-0.7869108319282532
-0.7122883200645447
-0.6249507665634155
-0.5265836715698242
-0.41913947463035583
-0.304702490568161
-0.18538466095924377
-0.06327817589044571
0.0595475435256958
0.18102207779884338
0.29907312989234924
0.4116433560848236
0.5167485475540161
0.6125520467758179
0.697446882724762
0.7701274752616882
0.8296290040016174
0.8753342628479004
0.9069482088088989
0.9244461059570312
0.9280093312263489
0.9179609417915344
0.894706666469574
0.8586912751197815
0.8103811740875244
0.7502558827400208
0.6788291931152344
0.5966757535934448
0.5044830441474915
0.40310588479042053
0.2936323285102844
0.1774517297744751
0.056305862963199615
-0.06768409162759781
-0.19204145669937134
-0.314029335975647
-0.43080517649650574
-0.5396298766136169
-0.638080894947052
-0.7242234349250793
-0.796691358089447
-0.8546812534332275
-0.8978612422943115
-0.9262564182281494
-0.9401134848594666
-0.9397953152656555
-0.9257013201713562
-0.898220956325531
-0.8577208518981934
-0.8045625686645508
-0.7391470074653625
-0.661975622177124
-0.5737303495407104
-0.4753536283969879
-0.36811956763267517
-0.25367528200149536
-0.134041428565979
-0.011553473770618439
0.1112423911690712
0.23173651099205017
0.34741610288619995
0.4560113549232483
0.5556055903434753
0.6447024941444397
0.6054918169975281
0.6812174320220947
0.7471125721931458
0.80227130651474
0.8457831144332886
0.8767438530921936
0.894298791885376
0.8976876139640808
0.8863157629966736
0.8598313927650452
0.8182132840156555
0.7618525624275208
0.6916139125823975
0.6088561415672302
0.515394389629364