# vtk DataFile Version 3.0
2D PINN Solution
ASCII
DATASET STRUCTURED_GRID
DIMENSIONS 100 100 1
POINTS 10000 float
-1.0 -1.0 0.0
-0.9797979797979798 -1.0 0.0
-0.9595959595959596 -1.0 0.0
-0.9393939393939394 -1.0 0.0
-0.9191919191919192 -1.0 0.0
-0.898989898989899 -1.0 0.0
-0.8787878787878788 -1.0 0.0
-0.8585858585858586 -1.0 0.0
-0.8383838383838383 -1.0 0.0
-0.8181818181818181 -1.0 0.0
-0.797979797979798 -1.0 0.0
-0.7777777777777778 -1.0 0.0
-0.7575757575757576 -1.0 0.0
-0.7373737373737373 -1.0 0.0
-0.7171717171717171 -1.0 0.0
-0.696969696969697 -1.0 0.0
-0.6767676767676767 -1.0 0.0
-0.6565656565656566 -1.0 0.0
-0.6363636363636364 -1.0 0.0
-0.6161616161616161 -1.0 0.0
-0.5959595959595959 -1.0 0.0
-0.5757575757575757 -1.0 0.0
-0.5555555555555556 -1.0 0.0
-0.5353535353535352 -1.0 0.0
-0.5151515151515151 -1.0 0.0
-0.4949494949494949 -1.0 0.0
-0.4747474747474747 -1.0 0.0
-0.4545454545454545 -1.0 0.0
-0.43434343434343425 -1.0 0.0
-0.41414141414141414 -1.0 0.0
-0.3939393939393939 -1.0 0.0
-0.3737373737373737 -1.0 0.0
-0.3535353535353535 -1.0 0.0
-0.33333333333333326 -1.0 0.0
-0.31313131313131304 -1.0 0.0
-0.2929292929292928 -1.0 0.0
-0.2727272727272727 -1.0 0.0
-0.2525252525252525 -1.0 0.0
-0.23232323232323226 -1.0 0.0
-0.21212121212121204 -1.0 0.0
-0.19191919191919182 -1.0 0.0
-0.1717171717171716 -1.0 0.0
-0.1515151515151515 -1.0 0.0
-0.13131313131313127 -1.0 0.0
-0.11111111111111105 -1.0 0.0
-0.09090909090909083 -1.0 0.0
-0.07070707070707061 -1.0 0.0
-0.050505050505050386 -1.0 0.0
-0.030303030303030276 -1.0 0.0
-0.010101010101010055 -1.0 0.0
0.010101010101010166 -1.0 0.0
0.030303030303030498 -1.0 0.0
0.05050505050505061 -1.0 0.0
0.07070707070707072 -1.0 0.0
0.09090909090909105 -1.0 0.0
0.11111111111111116 -1.0 0.0
0.1313131313131315 -1.0 0.0
0.1515151515151516 -1.0 0.0
0.1717171717171717 -1.0 0.0
0.19191919191919204 -1.0 0.0
0.21212121212121215 -1.0 0.0
0.2323232323232325 -1.0 0.0
0.2525252525252526 -1.0 0.0
0.27272727272727293 -1.0 0.0
0.29292929292929304 -1.0 0.0
0.31313131313131315 -1.0 0.0
0.3333333333333335 -1.0 0.0
0.3535353535353536 -1.0 0.0
0.3737373737373739 -1.0 0.0
0.39393939393939403 -1.0 0.0
0.41414141414141437 -1.0 0.0
0.4343434343434345 -1.0 0.0
0.4545454545454546 -1.0 0.0
0.4747474747474749 -1.0 0.0
0.49494949494949503 -1.0 0.0
0.5151515151515154 -1.0 0.0
0.5353535353535355 -1.0 0.0
0.5555555555555556 -1.0 0.0
0.5757575757575759 -1.0 0.0
0.595959595959596 -1.0 0.0
0.6161616161616164 -1.0 0.0
0.6363636363636365 -1.0 0.0
0.6565656565656568 -1.0 0.0
0.6767676767676769 -1.0 0.0
0.696969696969697 -1.0 0.0
0.7171717171717173 -1.0 0.0
0.7373737373737375 -1.0 0.0
0.7575757575757578 -1.0 0.0
0.7777777777777779 -1.0 0.0
0.7979797979797982 -1.0 0.0
0.8181818181818183 -1.0 0.0
0.8383838383838385 -1.0 0.0
0.8585858585858588 -1.0 0.0
0.8787878787878789 -1.0 0.0
0.8989898989898992 -1.0 0.0
0.9191919191919193 -1.0 0.0
0.9393939393939394 -1.0 0.0
0.9595959595959598 -1.0 0.0
0.9797979797979799 -1.0 0.0
1.0 -1.0 0.0
-1.0 -0.9797979797979798 0.0
-0.9797979797979798 -0.9797979797979798 0.0
-0.9595959595959596 -0.9797979797979798 0.0
-0.9393939393939394 -0.9797979797979798 0.0
-0.9191919191919192 -0.9797979797979798 0.0
-0.898989898989899 -0.9797979797979798 0.0
-0.8787878787878788 -0.9797979797979798 0.0
-0.8585858585858586 -0.9797979797979798 0.0
-0.8383838383838383 -0.9797979797979798 0.0
-0.8181818181818181 -0.9797979797979798 0.0
-0.797979797979798 -0.9797979797979798 0.0
-0.7777777777777778 -0.9797979797979798 0.0
-0.7575757575757576 -0.9797979797979798 0.0
-0.7373737373737373 -0.9797979797979798 0.0
-0.7171717171717171 -0.9797979797979798 0.0
-0.696969696969697 -0.9797979797979798 0.0
-0.6767676767676767 -0.9797979797979798 0.0
-0.6565656565656566 -0.9797979797979798 0.0
-0.6363636363636364 -0.9797979797979798 0.0
-0.6161616161616161 -0.9797979797979798 0.0
-0.5959595959595959 -0.9797979797979798 0.0
-0.5757575757575757 -0.9797979797979798 0.0
-0.5555555555555556 -0.9797979797979798 0.0
-0.5353535353535352 -0.9797979797979798 0.0
-0.5151515151515151 -0.9797979797979798 0.0
-0.4949494949494949 -0.9797979797979798 0.0
-0.4747474747474747 -0.9797979797979798 0.0
-0.4545454545454545 -0.9797979797979798 0.0
-0.43434343434343425 -0.9797979797979798 0.0
-0.41414141414141414 -0.9797979797979798 0.0
-0.3939393939393939 -0.9797979797979798 0.0
-0.3737373737373737 -0.9797979797979798 0.0
-0.3535353535353535 -0.9797979797979798 0.0
-0.33333333333333326 -0.9797979797979798 0.0
-0.31313131313131304 -0.9797979797979798 0.0
-0.2929292929292928 -0.9797979797979798 0.0
-0.2727272727272727 -0.9797979797979798 0.0
-0.2525252525252525 -0.9797979797979798 0.0
-0.23232323232323226 -0.9797979797979798 0.0
-0.21212121212121204 -0.9797979797979798 0.0
-0.19191919191919182 -0.9797979797979798 0.0
-0.1717171717171716 -0.9797979797979798 0.0
-0.1515151515151515 -0.9797979797979798 0.0
-0.13131313131313127 -0.9797979797979798 0.0
-0.11111111111111105 -0.9797979797979798 0.0
-0.09090909090909083 -0.9797979797979798 0.0
-0.07070707070707061 -0.9797979797979798 0.0
-0.050505050505050386 -0.9797979797979798 0.0
-0.030303030303030276 -0.9797979797979798 0.0
-0.010101010101010055 -0.9797979797979798 0.0
0.010101010101010166 -0.9797979797979798 0.0
0.030303030303030498 -0.9797979797979798 0.0
0.05050505050505061 -0.9797979797979798 0.0
0.07070707070707072 -0.9797979797979798 0.0
0.09090909090909105 -0.9797979797979798 0.0
0.11111111111111116 -0.9797979797979798 0.0
0.1313131313131315 -0.9797979797979798 0.0
0.1515151515151516 -0.9797979797979798 0.0
0.1717171717171717 -0.9797979797979798 0.0
0.19191919191919204 -0.9797979797979798 0.0
0.21212121212121215 -0.9797979797979798 0.0
0.2323232323232325 -0.9797979797979798 0.0
0.2525252525252526 -0.9797979797979798 0.0
0.27272727272727293 -0.9797979797979798 0.0
0.29292929292929304 -0.9797979797979798 0.0
0.31313131313131315 -0.9797979797979798 0.0
0.3333333333333335 -0.9797979797979798 0.0
0.3535353535353536 -0.9797979797979798 0.0
0.3737373737373739 -0.9797979797979798 0.0
0.39393939393939403 -0.9797979797979798 0.0
0.41414141414141437 -0.9797979797979798 0.0
0.4343434343434345 -0.9797979797979798 0.0
0.4545454545454546 -0.9797979797979798 0.0
0.4747474747474749 -0.9797979797979798 0.0
0.49494949494949503 -0.9797979797979798 0.0
0.5151515151515154 -0.9797979797979798 0.0
0.5353535353535355 -0.9797979797979798 0.0
0.5555555555555556 -0.9797979797979798 0.0
0.5757575757575759 -0.9797979797979798 0.0
0.595959595959596 -0.9797979797979798 0.0
0.6161616161616164 -0.9797979797979798 0.0
0.6363636363636365 -0.9797979797979798 0.0
0.6565656565656568 -0.9797979797979798 0.0
0.6767676767676769 -0.9797979797979798 0.0
0.696969696969697 -0.9797979797979798 0.0
0.7171717171717173 -0.9797979797979798 0.0
0.7373737373737375 -0.9797979797979798 0.0
0.7575757575757578 -0.9797979797979798 0.0
0.7777777777777779 -0.9797979797979798 0.0
0.7979797979797982 -0.9797979797979798 0.0
0.8181818181818183 -0.9797979797979798 0.0
0.8383838383838385 -0.9797979797979798 0.0
0.8585858585858588 -0.9797979797979798 0.0
0.8787878787878789 -0.9797979797979798 0.0
0.8989898989898992 -0.9797979797979798 0.0
0.9191919191919193 -0.9797979797979798 0.0
0.9393939393939394 -0.9797979797979798 0.0
0.9595959595959598 -0.9797979797979798 0.0
0.9797979797979799 -0.9797979797979798 0.0
1.0 -0.9797979797979798 0.0
-1.0 -0.9595959595959596 0.0
-0.9797979797979798 -0.9595959595959596 0.0
-0.9595959595959596 -0.9595959595959596 0.0
-0.9393939393939394 -0.9595959595959596 0.0
-0.9191919191919192 -0.9595959595959596 0.0
-0.898989898989899 -0.9595959595959596 0.0
-0.8787878787878788 -0.9595959595959596 0.0
-0.8585858585858586 -0.9595959595959596 0.0
-0.8383838383838383 -0.9595959595959596 0.0
-0.8181818181818181 -0.9595959595959596 0.0
-0.797979797979798 -0.9595959595959596 0.0
-0.7777777777777778 -0.9595959595959596 0.0
-0.7575757575757576 -0.9595959595959596 0.0
-0.7373737373737373 -0.9595959595959596 0.0
-0.7171717171717171 -0.9595959595959596 0.0
-0.696969696969697 -0.9595959595959596 0.0
-0.6767676767676767 -0.9595959595959596 0.0
-0.6565656565656566 -0.9595959595959596 0.0
-0.6363636363636364 -0.9595959595959596 0.0
-0.6161616161616161 -0.9595959595959596 0.0
-0.5959595959595959 -0.9595959595959596 0.0
-0.5757575757575757 -0.9595959595959596 0.0
-0.5555555555555556 -0.9595959595959596 0.0
-0.5353535353535352 -0.9595959595959596 0.0
-0.5151515151515151 -0.9595959595959596 0.0
-0.4949494949494949 -0.9595959595959596 0.0
-0.4747474747474747 -0.9595959595959596 0.0
-0.4545454545454545 -0.9595959595959596 0.0
-0.43434343434343425 -0.9595959595959596 0.0
-0.41414141414141414 -0.9595959595959596 0.0
-0.3939393939393939 -0.9595959595959596 0.0
-0.3737373737373737 -0.9595959595959596 0.0
-0.3535353535353535 -0.9595959595959596 0.0
-0.33333333333333326 -0.9595959595959596 0.0
-0.31313131313131304 -0.9595959595959596 0.0
-0.2929292929292928 -0.9595959595959596 0.0
-0.2727272727272727 -0.9595959595959596 0.0
-0.2525252525252525 -0.9595959595959596 0.0
-0.23232323232323226 -0.9595959595959596 0.0
-0.21212121212121204 -0.9595959595959596 0.0
-0.19191919191919182 -0.9595959595959596 0.0
-0.1717171717171716 -0.9595959595959596 0.0
-0.1515151515151515 -0.9595959595959596 0.0
-0.13131313131313127 -0.9595959595959596 0.0
-0.11111111111111105 -0.9595959595959596 0.0
-0.09090909090909083 -0.9595959595959596 0.0
-0.07070707070707061 -0.9595959595959596 0.0
-0.050505050505050386 -0.9595959595959596 0.0
-0.030303030303030276 -0.9595959595959596 0.0
-0.010101010101010055 -0.9595959595959596 0.0
0.010101010101010166 -0.9595959595959596 0.0
0.030303030303030498 -0.9595959595959596 0.0
0.05050505050505061 -0.9595959595959596 0.0
0.07070707070707072 -0.9595959595959596 0.0
0.09090909090909105 -0.9595959595959596 0.0
0.11111111111111116 -0.9595959595959596 0.0
0.1313131313131315 -0.9595959595959596 0.0
0.1515151515151516 -0.9595959595959596 0.0
0.1717171717171717 -0.9595959595959596 0.0
0.19191919191919204 -0.9595959595959596 0.0
0.21212121212121215 -0.9595959595959596 0.0
[...]
POINT_DATA 10000
SCALARS u float 1
LOOKUP_TABLE default
0.648335337638855
0.6864854693412781
0.7170954942703247
0.7396180033683777
0.7535421252250671
0.7583791613578796
0.7536583542823792
0.7389362454414368
0.713801920413971
0.6778966784477234
0.6309489011764526
0.5728219151496887
0.5035691857337952
0.42351922392845154
0.33334824442863464
0.23416495323181152
0.12755447626113892
0.015590690076351166
-0.09921584278345108
-0.21403738856315613
-0.32590728998184204
-0.43192410469055176
-0.5294520258903503
-0.6162833571434021
-0.690721333026886
-0.7516075968742371
-0.7982734441757202
-0.8304625153541565
-0.8482299447059631
-0.8518567085266113
-0.8417747616767883
-0.8185210824012756
-0.7827153205871582
-0.735059916973114
-0.6763516068458557
-0.6075018048286438
-0.5295496582984924
-0.4436691105365753
-0.35116785764694214
-0.2534651756286621
-0.15207445621490479
-0.04857424646615982
0.05541335791349411
0.15825384855270386
0.2583184242248535
0.35402706265449524
0.4438753128051758
0.5264776945114136
0.6006011366844177
0.6651836633682251
0.7193525433540344
0.7624148726463318
0.7938434481620789
0.8132577538490295
0.8204006552696228
0.8151266574859619
0.797396183013916
0.7672845125198364
0.7249988317489624
0.6709151864051819
0.6056090593338013
0.5298915505409241
0.4448259472846985
0.3517317771911621
0.2521544396877289
0.14782902598381042
0.04061402380466461
-0.06756418198347092
-0.17477738857269287
-0.27914100885391235
-0.3788589835166931
-0.47225382924079895
-0.5577892661094666
-0.6340894103050232
-0.6999498605728149
-0.7543521523475647
-0.7964666485786438
-0.8256602883338928
-0.8415033221244812
-0.843766450881958
-0.8324311375617981
-0.8076878786087036
-0.7699439525604248
-0.71982741355896
-0.6581825017929077
-0.5860704779624939
-0.5047422051429749
-0.4156171381473541
-0.3202381134033203
-0.22022691369056702
-0.11722639948129654
-0.012854315340518951
0.09134375303983688
0.19392579793930054
0.2935778498649597
0.38912686705589294
0.4795438051223755
0.5639524459838867
0.6416202187538147
0.7119634747505188
0.6938928961753845
0.7367909550666809
0.7719220519065857
0.7986137270927429
0.8162144422531128
0.8240811228752136
0.8215729594230652
0.8080592751502991
0.7829229235649109
0.7455973029136658
0.6956090331077576
0.6326506733894348
0.5566807985305786
0.46803170442581177
0.3675391674041748
0.25663861632347107
0.1374243199825287
0.012618012726306915
-0.11456684023141861
-0.24063551425933838
-0.3621029853820801
-0.47576549649238586
-0.5789236426353455
-0.6695210933685303
-0.7461599707603455
-0.8080483675003052
-0.8548861145973206
-0.8867295384407043
-0.9038704037666321
-0.9067277908325195
-0.8957845568656921
-0.87154620885849
-0.8345314860343933
-0.7852889895439148
-0.7244288325309753
-0.652666449546814
-0.5708632469177246
-0.48006513714790344
-0.38152751326560974
-0.276712030172348
-0.16727611422538757
-0.05502849072217941
0.05811431258916855
0.1701945662498474
0.2792735695838928
0.38349470496177673
0.48114192485809326
0.5706881284713745
0.6508228778839111
0.7204671502113342
0.778762698173523
0.8250520825386047
0.8588469624519348
0.8797915577888489
0.8876334428787231
0.8822082877159119
0.8634319305419922
0.8313184380531311
0.7860092520713806
0.727817952632904
0.6572903990745544
0.5752485394477844
0.4828375279903412
0.381535142660141
0.27312055230140686
0.15961939096450806
0.04320695996284485
-0.07389084249734879
-0.1894950568675995
-0.30154451727867126
-0.40814462304115295
-0.5075910687446594
-0.5983776450157166
-0.6791895031929016
-0.7488997578620911
-0.8065590262413025
-0.8513926863670349
-0.8827922940254211
-0.9003150463104248
-0.9036850333213806
-0.8927992582321167
-0.8677353858947754
-0.8287700414657593
-0.7763959169387817
-0.7113427519798279
-0.6345917582511902
-0.5473783016204834
-0.45118144154548645
-0.3476938009262085
-0.23877111077308655
-0.12636658549308777
-0.012462414801120758
0.10101189464330673
0.2122466266155243
0.31959784030914307
0.4216321110725403
0.5171437859535217
0.6051619648933411
0.6849438548088074
0.7559623122215271
0.7298343777656555
0.7773522734642029
0.8169248104095459
0.8477393984794617
0.8689962029457092
0.8798835873603821
0.8795813322067261
0.8672578930854797
0.8420920372009277
0.8033037781715393
0.7502365708351135
0.6824498772621155
0.5998607277870178
0.5028988122940063
0.39266669750213623
0.27105554938316345
0.14076510071754456
0.005210526287555695
-0.13172674179077148
-0.26602402329444885
-0.39388835430145264
-0.5120638608932495
-0.6180223822593689
-0.7100248336791992
-0.7870611548423767
-0.8487176299095154
-0.8950134515762329
-0.926240086555481
-0.9428316950798035
-0.9452716708183289
-0.9340329766273499
-0.9095500111579895
-0.8722283244132996
-0.8224644660949707
-0.7606930136680603
-0.6874451041221619
-0.603407084941864
-0.5094833374023438
-0.40684273838996887
-0.2969449758529663
-0.1815302073955536
-0.06258255988359451
0.057740770280361176
0.17720326781272888
0.2935892641544342
0.4047979414463043
0.5089252591133118
0.6043141484260559
0.689581036567688
0.7636192440986633
0.825566291809082
0.8747769594192505
0.9107645153999329
0.9331701397895813
0.9417212605476379
0.9362170696258545
0.9165298938751221
0.882624089717865
0.8346033692359924
0.7727673649787903
0.6976789832115173
0.6102306246757507
0.5116866230964661
0.40369412302970886
0.288250207901001
0.16761544346809387
0.04420217126607895
-0.07955635339021683
-0.20132103562355042
-0.31893378496170044
-0.4304629862308502
-0.5342184901237488
-0.6287433505058289
-0.7127900123596191
-0.7853038311004639
-0.8453969955444336
-0.892337441444397
-0.9255358576774597
-0.9445343613624573
-0.9490155577659607
-0.9387980103492737
-0.9138546586036682
-0.8743360042572021
-0.8206037878990173
-0.7532573342323303
-0.673174262046814
-0.5815361142158508
-0.4798368513584137
-0.3698645830154419
-0.2536625266075134
-0.13345783948898315
-0.011564292013645172
0.10972640663385391
0.2282359004020691
0.34200000762939453
0.4493272006511688
0.548837423324585
0.6394751667976379
0.7204965353012085
0.7914398312568665
0.7552727460861206
0.8070982098579407
0.8508369326591492
0.8855245113372803
0.9101949334144592
0.9238632321357727
0.9255198836326599
0.9141348004341125
0.8886882662773132
0.8482223153114319
0.7919409871101379
0.7193461060523987
0.6304190754890442
0.5258126854896545
0.4070250391960144
0.27649831771850586
0.13757425546646118
-0.005709446966648102
-0.14897900819778442
-0.28793859481811523
-0.4187755882740021
-0.5384323000907898
-0.6447221040725708
-0.7362959980964661
-0.8125169277191162
-0.8732677102088928
-0.918776273727417
-0.949455201625824
-0.9657843708992004
-0.9682324528694153
-0.9572127461433411
-0.9330738186836243
-0.8961056470870972
-0.846580445766449
-0.7847947478294373
-0.7111414670944214
-0.6261749863624573
-0.5306878685951233
-0.42577072978019714
-0.3128538429737091
-0.1937105357646942
-0.07042039185762405
0.05471361428499222
0.17927104234695435
0.3008451759815216
0.41716089844703674
0.5261672139167786
0.6260988116264343
0.7154985070228577
0.7932037115097046
0.8583136200904846
0.9101414680480957
0.9481617212295532
0.9719664454460144
0.9812316298484802
0.9757029414176941
0.9552087783813477
0.9196875691413879
0.8692470192909241
0.8042334318161011
0.7253035306930542
0.6334874629974365
0.5302189588546753
0.4173310399055481
0.296996146440506
0.17162659764289856
0.043747685849666595
-0.08413141220808029
-0.2096351683139801
-0.33059707283973694
-0.44510123133659363
-0.5514901876449585
-0.6483470797538757
-0.7344704270362854
-0.8088446259498596
-0.8706167340278625
-0.9190734028816223
-0.9536301493644714
-0.9738170504570007
-0.9792773127555847
-0.9697725176811218
-0.9451970458030701
-0.9056025147438049
-0.8512366414070129
-0.7825856804847717
-0.7004268765449524
-0.6058683395385742
-0.5003786683082581
-0.3857928216457367
-0.26427945494651794
-0.1382666528224945
-0.010337494313716888
0.11689921468496323
0.24094796180725098
0.3595484495162964
0.4707697331905365
0.5730701088905334
0.6653105616569519
0.7467429637908936
0.8169665336608887
0.7695698142051697
0.8252031207084656
0.8726308941841125
0.9107229113578796
0.9383377432823181
0.9543067216873169
0.9574320912361145
0.946500837802887
0.9203260540962219
0.8778294920921326
0.8181694149971008
0.7409126162528992
0.6462478041648865
0.535194993019104
0.4097626507282257
0.2729726731777191
0.12872451543807983
-0.018524564802646637
-0.1642090082168579
-0.3040884733200073
-0.4346133768558502
-0.5531086325645447
-0.6577951908111572
-0.7476876974105835
-0.822412371635437
-0.8820201754570007
-0.9268130660057068
-0.9572083353996277
-0.9736399054527283
-0.9765017628669739
-0.9661182761192322
-0.9427395462989807
-0.906563937664032
-0.8577715158462524
-0.7965765595436096
-0.7232984900474548
-0.6384275555610657
-0.5427019000053406
-0.437173992395401
-0.3232453167438507
-0.20268109440803528
-0.07757046073675156
0.049750201404094696
0.17681431770324707
0.30114832520484924
0.42040422558784485
0.5324510931968689
0.635441780090332
0.7278346419334412
0.8083791732788086
0.876082718372345
0.9301614165306091
0.9699932932853699
0.9950743317604065
1.0049968957901
0.9994402527809143
0.9781954884529114
0.9412099719047546
0.8886527419090271
0.8209913372993469
0.7390559315681458
0.6440860033035278
0.537729024887085
0.4219956696033478
0.2991734743118286
0.17171260714530945
0.042105354368686676
-0.08721590787172318
-0.21396711468696594
-0.3360619843006134
-0.4516412317752838
-0.5590790510177612
-0.6569688320159912
-0.7441088557243347
-0.8194796442985535
-0.8822178840637207
-0.9316039085388184
-0.9670394062995911
-0.9880388379096985
-0.9942238926887512
-0.9853217005729675
-0.9611844420433044
-0.9218083024024963
-0.8673680424690247
-0.7982744574546814
-0.7152227759361267
-0.6192506551742554
-0.5117824673652649
-0.39464709162712097
-0.27006492018699646
-0.14057841897010803
-0.00894666463136673
0.12199988216161728
0.2495194971561432
0.37111565470695496
0.4846523702144623
0.5884411334991455
0.6812601685523987
0.7623410820960999
0.8313201069831848
0.772333025932312
0.8310806155204773
0.8815144896507263
0.9223248362541199
0.9521845579147339
0.9697412848472595
0.973619282245636
0.962457001209259
0.9349659085273743
0.8900437951087952
0.826934278011322
0.7454315423965454
0.646098792552948
0.5304534435272217
0.40105631947517395
0.2614324986934662
0.11582184582948685
-0.03122926503419876
-0.17531916499137878
-0.31257858872413635
-0.43992963433265686
-0.555160403251648
-0.656866729259491
-0.7443121671676636
-0.8172459006309509
-0.8757388591766357
-0.9200385212898254
-0.9504649043083191
-0.9673381447792053
-0.9709349274635315
-0.9614726901054382
-0.9391127228736877
-0.903984010219574
-0.8562204241752625
-0.7960149049758911
-0.7236844897270203
-0.6397313475608826
-0.5449103713035583
-0.44028303027153015
-0.32724353671073914
-0.20751747488975525
-0.08312461525201797
0.04368845373392105
0.17054793238639832
0.2950618267059326
0.4149247109889984
0.5280054807662964
0.6324087977409363
0.7265001535415649
0.808906614780426
0.8784904479980469
0.9343137741088867
0.9756010174751282
1.0017101764678955
1.0121217966079712
1.0064457654953003
0.9844591617584229
0.9461634755134583
0.8918583393096924
0.8222095966339111
0.7382974028587341
0.6416218876838684
0.5340531468391418
0.4177391231060028
0.2949947416782379
0.16817903518676758
0.03960978984832764
-0.08850029855966568
-0.21406731009483337
-0.3351588547229767
-0.4499988853931427
-0.5569835305213928
-0.6546803712844849
-0.7418348789215088
-0.8173711895942688
-0.880374014377594
-0.9300800561904907
-0.9658647179603577
-0.987227737903595
-0.9937819838523865
-0.9852549433708191
-0.9614960551261902
-0.9224953651428223
-0.8684121370315552
-0.7996298670768738
-0.7168010473251343
-0.6209097504615784
-0.5133238434791565
-0.39582669734954834
-0.2706136405467987
-0.14024218916893005
-0.0075290873646736145
0.12459134310483932
0.25324493646621704
0.37577512860298157
0.4899004399776459
0.5938059687614441
0.6861792206764221
0.7662104368209839
0.8335325121879578
0.7633925080299377
0.8243686556816101
0.8769184350967407
0.9195442795753479
0.9507316946983337
0.9689521193504333
0.9726868867874146
0.9604830145835876
0.9310498833656311
0.8833985924720764
0.8170281052589417
0.7321373820304871
0.6298068761825562
0.5121168494224548
0.3821139335632324
0.2436177134513855
0.1008782610297203
-0.041836269199848175
-0.18062424659729004
-0.3122168481349945
-0.4341033399105072
-0.5445126891136169
-0.6423133015632629
-0.7268761396408081
-0.7979279160499573
-0.8554238677024841
-0.8994552493095398
-0.9301671385765076
-0.9477174878120422
-0.9522414803504944
-0.9438474774360657
-0.9226230978965759
-0.8886620402336121
-0.8421034216880798
-0.7831771969795227
-0.7122681736946106
-0.6299617886543274
-0.5370952486991882
-0.43478113412857056
-0.3244178593158722
-0.20766401290893555
-0.08640456944704056
0.0373103991150856
0.16132846474647522
0.2834673225879669
0.4015762507915497
0.5136053562164307
0.6176495552062988
0.7119877934455872
0.7950959205627441
0.8656484484672546
0.9225049614906311
0.9646942019462585
0.9914055466651917
1.0019962787628174
0.9960190653800964
0.9732731580734253
0.9338761568069458
0.8783284425735474
0.8075662851333618
0.722968339920044
0.6263012290000916
0.519619345664978
0.40512987971305847
0.28505629301071167
0.16154593229293823
0.03662554919719696
-0.0878031924366951
-0.20993337035179138
-0.32802990078926086
-0.4404192864894867
-0.54550701379776
-0.641808807849884
-0.7279779314994812
-0.8028305172920227
-0.8653612732887268
-0.9147375822067261
-0.9502920508384705
-0.9715090394020081
-0.9780146479606628
-0.9695671200752258
-0.9460576176643372
-0.9075226187705994
-0.8541651368141174
-0.7863903641700745
-0.7048529982566833
-0.6105114817619324
-0.5046767592430115
-0.3890519142150879
-0.2657395899295807
-0.13720551133155823
-0.006199367344379425
0.12437974661588669
0.25164589285850525
0.372898668050766
0.48577433824539185
0.5883623361587524
0.6792635917663574
0.757588803768158
0.8229219317436218
0.742778480052948
0.8049068450927734
0.8584804534912109
0.9018162488937378
0.9332205057144165
0.9510176777839661
0.9536022543907166
0.9395288825035095
0.907636821269989
0.8572182655334473
0.7882100939750671
0.7013646960258484
0.5983558297157288
0.4817717373371124
0.3549520671367645
0.22169673442840576
0.08590354770421982
-0.04876614362001419
-0.17914238572120667
-0.30265840888023376
-0.4173627197742462
-0.5218378901481628
-0.6150988340377808
-0.6964923739433289
-0.765596330165863
-0.8221573233604431
-0.8660312294960022
-0.89714115858078
-0.9154505729675293
-0.9209452867507935
-0.9136333465576172
-0.8935548663139343
-0.8608055710792542
-0.8155814409255981
-0.7582105994224548
-0.6892060041427612
-0.6092923283576965
-0.5194279551506042
-0.4208001494407654
-0.3148007094860077
-0.20299026370048523
-0.08705688267946243
0.031220726668834686
0.15000000596046448
0.267395943403244
0.38150110840797424
0.4904104769229889
0.5922536253929138
0.6852405667304993
0.7676904201507568
0.8380689024925232
0.8950069546699524
0.9373159408569336
0.9640064835548401
0.9743237495422363
0.9677956700325012
0.9443000555038452
0.9041347503662109
0.84806889295578
0.7773497104644775
0.6936511397361755
0.5989617109298706
0.4954244792461395
0.38518089056015015
0.27024900913238525
0.15246960520744324
0.033509232103824615
-0.08507969230413437
-0.20178672671318054
-0.3150879740715027
-0.4234226644039154
-0.5252082347869873
-0.6188949346542358
-0.7030211091041565
-0.7762765288352966
-0.8375325202941895
-0.8858668208122253
-0.920560359954834
-0.9410898089408875
-0.9471078515052795
-0.9384362101554871
-0.9150499701499939
-0.8770807981491089
-0.8248212337493896
-0.7587490677833557
-0.679562509059906
-0.5882154107093811
-0.4859674274921417
-0.37441471219062805
-0.2555069923400879
-0.13152924180030823
-0.005040295422077179
0.12123186141252518
0.2445283830165863
0.3622148334980011
0.4719320833683014
0.5717230439186096
0.6600993275642395
0.7360687255859375
0.7991116046905518
0.7106953263282776
0.7727140188217163
0.826032280921936
0.8687910437583923
0.8991495966911316
0.9153433442115784
0.9157724976539612
0.8991256356239319
0.8645390868186951
0.8117600083351135
0.7413114905357361
0.6545740962028503
0.5537673830986023
0.4418047070503235
0.3220162093639374
0.19784030318260193
0.07251771539449692
-0.05111248046159744
-0.17070141434669495
-0.2843737304210663
-0.3906550109386444
-0.488374263048172
-0.5765824317932129
-0.6545009016990662
-0.7214832901954651
-0.7770032286643982
-0.820639431476593
-0.8520624041557312
-0.8710326552391052
-0.8773890137672424
-0.8710589408874512
-0.8520646691322327
-0.8205530047416687
-0.7768241167068481
-0.7213583588600159
-0.6548417210578918
-0.5781684517860413
-0.4924266040325165
-0.39886239171028137
-0.29882967472076416
-0.1937457025051117
-0.0850536897778511
0.02578435093164444
0.13727402687072754
0.2478698492050171
0.3559426963329315
0.4597738981246948
0.557568371295929
0.6474947929382324
0.7277403473854065
0.7965696454048157
0.8523901104927063
0.8938040137290955
0.9196655750274658
0.9291462898254395
0.9218063354492188
0.8976696133613586
0.8572754263877869
0.8016988039016724
0.7324898838996887
0.6515577435493469
0.5609960556030273
0.4628972113132477
0.3592047393321991
0.25162866711616516
0.141649067401886
0.03056558221578598
-0.08040211349725723
-0.19001534581184387
-0.2969450056552887
-0.3997383117675781
-0.49683693051338196
-0.5866400599479675
-0.6675805449485779
-0.7382186055183411
-0.7973005175590515
-0.8438081741333008
-0.8769698739051819
-0.8962593078613281
-0.9013782143592834
-0.8922345042228699
-0.8689208626747131
-0.8316974639892578
-0.7809826731681824
-0.7173629999160767
-0.6416007280349731
-0.5546674132347107
-0.4577682912349701
-0.3523750305175781
-0.24024084210395813
-0.12339255958795547
-0.004099465906620026
0.11519942432641983
0.23199677467346191
0.3438430428504944
0.44847777485847473
0.5439479351043701
0.6286990642547607
0.7016198039054871
0.7620431780815125
0.6674930453300476
0.7279730439186096
0.779590904712677
0.8203492164611816
0.848318874835968
0.8617371916770935
0.8591380715370178
0.8395060896873474
0.8024385571479797
0.7482856512069702
0.6782175898551941
0.594196617603302
0.49880310893058777
0.3949812352657318
0.285731703042984
0.17383959889411926
0.061703287065029144
-0.04872382432222366
-0.15587881207466125
-0.2584845721721649
-0.3554404675960541
-0.4457230865955353
-0.5283440351486206
-0.6023477911949158
-0.6668298840522766
-0.7209646105766296
-0.7640369534492493
-0.7954632043838501
-0.8148037195205688
-0.8217689990997314
-0.816230833530426
-0.7982369065284729
-0.768029510974884
-0.7260578274726868
-0.6729930639266968
-0.6097148060798645
-0.5372840166091919
-0.45688942074775696
-0.36978819966316223
-0.27723854780197144
-0.1804620921611786
-0.08062464743852615
0.02114013582468033
0.12368392199277878
0.22578340768814087
0.32608288526535034
0.4230586886405945
0.5150157809257507
0.6001206040382385
0.6764692068099976
0.7421730160713196
0.7954578399658203
0.8347644209861755
0.8588494062423706
0.8668811917304993
0.8585290312767029
0.8340302109718323
0.7942108511924744
0.7404370903968811
0.6744911074638367
0.5983856916427612
0.5141556859016418
0.423685759305954
0.3286001980304718
0.23024246096611023
0.12972207367420197
0.02801302820444107
-0.07393722981214523
-0.17510256171226501
-0.2743086516857147
-0.3701990842819214
-0.4612560570240021
-0.5458561182022095
-0.6223682165145874
-0.6892511248588562
-0.7451534867286682
-0.7889738082885742
-0.8199012279510498
-0.8374212384223938
-0.8412980437278748
-0.8315451741218567
-0.8083877563476562
-0.7722315192222595
-0.7236378192901611
-0.6633073091506958
-0.592080295085907
-0.5109428763389587
-0.42104533314704895
-0.3237183392047882
-0.2204870879650116
-0.11307481676340103
-0.0033918991684913635
0.10649999231100082
0.21444687247276306
0.31828585267066956
0.41594383120536804
0.5055469274520874
0.5855074524879456
0.6545989513397217
0.7119851112365723
0.6136401891708374
0.6710164546966553
0.7193722128868103
0.7566354870796204
0.7808881402015686
0.790497362613678
0.7842893600463867
0.7617067694664001
0.7229483127593994
0.6690213084220886
0.6016929149627686
0.5233116149902344
0.4365306794643402
0.34400475025177
0.24812614917755127