# vtk DataFile Version 3.0
2D PINN Solution
ASCII
DATASET STRUCTURED_GRID
DIMENSIONS 100 100 1
POINTS 10000 float
-1.0 -1.0 0.0
-0.9797979797979798 -1.0 0.0
-0.9595959595959596 -1.0 0.0
-0.9393939393939394 -1.0 0.0
-0.9191919191919192 -1.0 0.0
-0.898989898989899 -1.0 0.0
-0.8787878787878788 -1.0 0.0
-0.8585858585858586 -1.0 0.0
-0.8383838383838383 -1.0 0.0
-0.8181818181818181 -1.0 0.0
-0.797979797979798 -1.0 0.0
-0.7777777777777778 -1.0 0.0
-0.7575757575757576 -1.0 0.0
-0.7373737373737373 -1.0 0.0
-0.7171717171717171 -1.0 0.0
-0.696969696969697 -1.0 0.0
-0.6767676767676767 -1.0 0.0
-0.6565656565656566 -1.0 0.0
-0.6363636363636364 -1.0 0.0
-0.6161616161616161 -1.0 0.0
-0.5959595959595959 -1.0 0.0
-0.5757575757575757 -1.0 0.0
-0.5555555555555556 -1.0 0.0
-0.5353535353535352 -1.0 0.0
-0.5151515151515151 -1.0 0.0
-0.4949494949494949 -1.0 0.0
-0.4747474747474747 -1.0 0.0
-0.4545454545454545 -1.0 0.0
-0.43434343434343425 -1.0 0.0
-0.41414141414141414 -1.0 0.0
-0.3939393939393939 -1.0 0.0
-0.3737373737373737 -1.0 0.0
-0.3535353535353535 -1.0 0.0
-0.33333333333333326 -1.0 0.0
-0.31313131313131304 -1.0 0.0
-0.2929292929292928 -1.0 0.0
-0.2727272727272727 -1.0 0.0
-0.2525252525252525 -1.0 0.0
-0.23232323232323226 -1.0 0.0
-0.21212121212121204 -1.0 0.0
-0.19191919191919182 -1.0 0.0
-0.1717171717171716 -1.0 0.0
-0.1515151515151515 -1.0 0.0
-0.13131313131313127 -1.0 0.0
-0.11111111111111105 -1.0 0.0
-0.09090909090909083 -1.0 0.0
-0.07070707070707061 -1.0 0.0
-0.050505050505050386 -1.0 0.0
-0.030303030303030276 -1.0 0.0
-0.010101010101010055 -1.0 0.0
0.010101010101010166 -1.0 0.0
0.030303030303030498 -1.0 0.0
0.05050505050505061 -1.0 0.0
0.07070707070707072 -1.0 0.0
0.09090909090909105 -1.0 0.0
0.11111111111111116 -1.0 0.0
0.1313131313131315 -1.0 0.0
0.1515151515151516 -1.0 0.0
0.1717171717171717 -1.0 0.0
0.19191919191919204 -1.0 0.0
0.21212121212121215 -1.0 0.0
0.2323232323232325 -1.0 0.0
0.2525252525252526 -1.0 0.0
0.27272727272727293 -1.0 0.0
0.29292929292929304 -1.0 0.0
0.31313131313131315 -1.0 0.0
0.3333333333333335 -1.0 0.0
0.3535353535353536 -1.0 0.0
0.3737373737373739 -1.0 0.0
0.39393939393939403 -1.0 0.0
0.41414141414141437 -1.0 0.0
0.4343434343434345 -1.0 0.0
0.4545454545454546 -1.0 0.0
0.4747474747474749 -1.0 0.0
0.49494949494949503 -1.0 0.0
0.5151515151515154 -1.0 0.0
0.5353535353535355 -1.0 0.0
0.5555555555555556 -1.0 0.0
0.5757575757575759 -1.0 0.0
0.595959595959596 -1.0 0.0
0.6161616161616164 -1.0 0.0
0.6363636363636365 -1.0 0.0
0.6565656565656568 -1.0 0.0
0.6767676767676769 -1.0 0.0
0.696969696969697 -1.0 0.0
0.7171717171717173 -1.0 0.0
0.7373737373737375 -1.0 0.0
0.7575757575757578 -1.0 0.0
0.7777777777777779 -1.0 0.0
0.7979797979797982 -1.0 0.0
0.8181818181818183 -1.0 0.0
0.8383838383838385 -1.0 0.0
0.8585858585858588 -1.0 0.0
0.8787878787878789 -1.0 0.0
0.8989898989898992 -1.0 0.0
0.9191919191919193 -1.0 0.0
0.9393939393939394 -1.0 0.0
0.9595959595959598 -1.0 0.0
0.9797979797979799 -1.0 0.0
1.0 -1.0 0.0
-1.0 -0.9797979797979798 0.0
-0.9797979797979798 -0.9797979797979798 0.0
-0.9595959595959596 -0.9797979797979798 0.0
-0.9393939393939394 -0.9797979797979798 0.0
-0.9191919191919192 -0.9797979797979798 0.0
-0.898989898989899 -0.9797979797979798 0.0
-0.8787878787878788 -0.9797979797979798 0.0
-0.8585858585858586 -0.9797979797979798 0.0
-0.8383838383838383 -0.9797979797979798 0.0
-0.8181818181818181 -0.9797979797979798 0.0
-0.797979797979798 -0.9797979797979798 0.0
-0.7777777777777778 -0.9797979797979798 0.0
-0.7575757575757576 -0.9797979797979798 0.0
-0.7373737373737373 -0.9797979797979798 0.0
-0.7171717171717171 -0.9797979797979798 0.0
-0.696969696969697 -0.9797979797979798 0.0
-0.6767676767676767 -0.9797979797979798 0.0
-0.6565656565656566 -0.9797979797979798 0.0
-0.6363636363636364 -0.9797979797979798 0.0
-0.6161616161616161 -0.9797979797979798 0.0
-0.5959595959595959 -0.9797979797979798 0.0
-0.5757575757575757 -0.9797979797979798 0.0
-0.5555555555555556 -0.9797979797979798 0.0
-0.5353535353535352 -0.9797979797979798 0.0
-0.5151515151515151 -0.9797979797979798 0.0
-0.4949494949494949 -0.9797979797979798 0.0
-0.4747474747474747 -0.9797979797979798 0.0
-0.4545454545454545 -0.9797979797979798 0.0
-0.43434343434343425 -0.9797979797979798 0.0
-0.41414141414141414 -0.9797979797979798 0.0
-0.3939393939393939 -0.9797979797979798 0.0
-0.3737373737373737 -0.9797979797979798 0.0
-0.3535353535353535 -0.9797979797979798 0.0
-0.33333333333333326 -0.9797979797979798 0.0
-0.31313131313131304 -0.9797979797979798 0.0
-0.2929292929292928 -0.9797979797979798 0.0
-0.2727272727272727 -0.9797979797979798 0.0
-0.2525252525252525 -0.9797979797979798 0.0
-0.23232323232323226 -0.9797979797979798 0.0
-0.21212121212121204 -0.9797979797979798 0.0
-0.19191919191919182 -0.9797979797979798 0.0
-0.1717171717171716 -0.9797979797979798 0.0
-0.1515151515151515 -0.9797979797979798 0.0
-0.13131313131313127 -0.9797979797979798 0.0
-0.11111111111111105 -0.9797979797979798 0.0
-0.09090909090909083 -0.9797979797979798 0.0
-0.07070707070707061 -0.9797979797979798 0.0
-0.050505050505050386 -0.9797979797979798 0.0
-0.030303030303030276 -0.9797979797979798 0.0
-0.010101010101010055 -0.9797979797979798 0.0
0.010101010101010166 -0.9797979797979798 0.0
0.030303030303030498 -0.9797979797979798 0.0
0.05050505050505061 -0.9797979797979798 0.0
0.07070707070707072 -0.9797979797979798 0.0
0.09090909090909105 -0.9797979797979798 0.0
0.11111111111111116 -0.9797979797979798 0.0
0.1313131313131315 -0.9797979797979798 0.0
0.1515151515151516 -0.9797979797979798 0.0
0.1717171717171717 -0.9797979797979798 0.0
0.19191919191919204 -0.9797979797979798 0.0
0.21212121212121215 -0.9797979797979798 0.0
0.2323232323232325 -0.9797979797979798 0.0
0.2525252525252526 -0.9797979797979798 0.0
0.27272727272727293 -0.9797979797979798 0.0
0.29292929292929304 -0.9797979797979798 0.0
0.31313131313131315 -0.9797979797979798 0.0
0.3333333333333335 -0.9797979797979798 0.0
0.3535353535353536 -0.9797979797979798 0.0
0.3737373737373739 -0.9797979797979798 0.0
0.39393939393939403 -0.9797979797979798 0.0
0.41414141414141437 -0.9797979797979798 0.0
0.4343434343434345 -0.9797979797979798 0.0
0.4545454545454546 -0.9797979797979798 0.0
0.4747474747474749 -0.9797979797979798 0.0
0.49494949494949503 -0.9797979797979798 0.0
0.5151515151515154 -0.9797979797979798 0.0
0.5353535353535355 -0.9797979797979798 0.0
0.5555555555555556 -0.9797979797979798 0.0
0.5757575757575759 -0.9797979797979798 0.0
0.595959595959596 -0.9797979797979798 0.0
0.6161616161616164 -0.9797979797979798 0.0
0.6363636363636365 -0.9797979797979798 0.0
0.6565656565656568 -0.9797979797979798 0.0
0.6767676767676769 -0.9797979797979798 0.0
0.696969696969697 -0.9797979797979798 0.0
0.7171717171717173 -0.9797979797979798 0.0
0.7373737373737375 -0.9797979797979798 0.0
0.7575757575757578 -0.9797979797979798 0.0
0.7777777777777779 -0.9797979797979798 0.0
0.7979797979797982 -0.9797979797979798 0.0
0.8181818181818183 -0.9797979797979798 0.0
0.8383838383838385 -0.9797979797979798 0.0
0.8585858585858588 -0.9797979797979798 0.0
0.8787878787878789 -0.9797979797979798 0.0
0.8989898989898992 -0.9797979797979798 0.0
0.9191919191919193 -0.9797979797979798 0.0
0.9393939393939394 -0.9797979797979798 0.0
0.9595959595959598 -0.9797979797979798 0.0
0.9797979797979799 -0.9797979797979798 0.0
1.0 -0.9797979797979798 0.0
-1.0 -0.9595959595959596 0.0
-0.9797979797979798 -0.9595959595959596 0.0
-0.9595959595959596 -0.9595959595959596 0.0
-0.9393939393939394 -0.9595959595959596 0.0
-0.9191919191919192 -0.9595959595959596 0.0
-0.898989898989899 -0.9595959595959596 0.0
-0.8787878787878788 -0.9595959595959596 0.0
-0.8585858585858586 -0.9595959595959596 0.0
-0.8383838383838383 -0.9595959595959596 0.0
-0.8181818181818181 -0.9595959595959596 0.0
-0.797979797979798 -0.9595959595959596 0.0
-0.7777777777777778 -0.9595959595959596 0.0
-0.7575757575757576 -0.9595959595959596 0.0
-0.7373737373737373 -0.9595959595959596 0.0
-0.7171717171717171 -0.9595959595959596 0.0
-0.696969696969697 -0.9595959595959596 0.0
-0.6767676767676767 -0.9595959595959596 0.0
-0.6565656565656566 -0.9595959595959596 0.0
-0.6363636363636364 -0.9595959595959596 0.0
-0.6161616161616161 -0.9595959595959596 0.0
-0.5959595959595959 -0.9595959595959596 0.0
-0.5757575757575757 -0.9595959595959596 0.0
-0.5555555555555556 -0.9595959595959596 0.0
-0.5353535353535352 -0.9595959595959596 0.0
-0.5151515151515151 -0.9595959595959596 0.0
-0.4949494949494949 -0.9595959595959596 0.0
-0.4747474747474747 -0.9595959595959596 0.0
-0.4545454545454545 -0.9595959595959596 0.0
-0.43434343434343425 -0.9595959595959596 0.0
-0.41414141414141414 -0.9595959595959596 0.0
-0.3939393939393939 -0.9595959595959596 0.0
-0.3737373737373737 -0.9595959595959596 0.0
-0.3535353535353535 -0.9595959595959596 0.0
-0.33333333333333326 -0.9595959595959596 0.0
-0.31313131313131304 -0.9595959595959596 0.0
-0.2929292929292928 -0.9595959595959596 0.0
-0.2727272727272727 -0.9595959595959596 0.0
-0.2525252525252525 -0.9595959595959596 0.0
-0.23232323232323226 -0.9595959595959596 0.0
-0.21212121212121204 -0.9595959595959596 0.0
-0.19191919191919182 -0.9595959595959596 0.0
-0.1717171717171716 -0.9595959595959596 0.0
-0.1515151515151515 -0.9595959595959596 0.0
-0.13131313131313127 -0.9595959595959596 0.0
-0.11111111111111105 -0.9595959595959596 0.0
-0.09090909090909083 -0.9595959595959596 0.0
-0.07070707070707061 -0.9595959595959596 0.0
-0.050505050505050386 -0.9595959595959596 0.0
-0.030303030303030276 -0.9595959595959596 0.0
-0.010101010101010055 -0.9595959595959596 0.0
0.010101010101010166 -0.9595959595959596 0.0
0.030303030303030498 -0.9595959595959596 0.0
0.05050505050505061 -0.9595959595959596 0.0
0.07070707070707072 -0.9595959595959596 0.0
0.09090909090909105 -0.9595959595959596 0.0
0.11111111111111116 -0.9595959595959596 0.0
0.1313131313131315 -0.9595959595959596 0.0
0.1515151515151516 -0.9595959595959596 0.0
0.1717171717171717 -0.9595959595959596 0.0
0.19191919191919204 -0.9595959595959596 0.0
0.21212121212121215 -0.9595959595959596 0.0
[...]
POINT_DATA 10000
SCALARS u float 1
LOOKUP_TABLE default
0.7361486554145813
0.7712779641151428
0.7979801297187805
0.8156026005744934
0.8235060572624207
0.821051299571991
0.8076075911521912
0.782561719417572
0.7453467845916748
0.6954922080039978
0.6326908469200134
0.5568978786468506
0.46844449639320374
0.368158221244812
0.2574678659439087
0.13845402002334595
0.013824336230754852
-0.11321628838777542
-0.23918545246124268
-0.36060020327568054
-0.47425779700279236
-0.5774566531181335
-0.6681306958198547
-0.7448756098747253
-0.806890070438385
-0.8538665175437927
-0.8858553171157837
-0.9031432867050171
-0.9061501026153564
-0.8953544497489929
-0.8712612986564636
-0.8343909382820129
-0.785292387008667
-0.7245773673057556
-0.652958333492279
-0.5712977647781372
-0.48064014315605164
-0.382237046957016
-0.2775486707687378
-0.16822752356529236
-0.05607987195253372
0.05698258429765701
0.16900411248207092
0.27804726362228394
0.38225531578063965
0.4799128472805023
0.5694901347160339
0.6496742367744446
0.7193838953971863
0.7777568101882935
0.8241356015205383
0.8580282330513
0.8790773153305054
0.8870318531990051
0.8817254900932312
0.8630759119987488
0.831095278263092
0.7859266996383667
0.7278830409049988
0.6575062870979309
0.5756179690361023
0.48335984349250793
0.3822046220302582
0.273929238319397
0.16055241227149963
0.044248126447200775
-0.07276294380426407
-0.18830087780952454
-0.3003086745738983
-0.4068906307220459
-0.5063418745994568
-0.5971545577049255
-0.678013265132904
-0.7477891445159912
-0.8055321574211121
-0.850464403629303
-0.8819770216941833
-0.8996250033378601
-0.9031325578689575
-0.8923933506011963
-0.8674840331077576
-0.8286793828010559
-0.7764722108840942
-0.7115875482559204
-0.6350071430206299
-0.5479593873023987
-0.4519234597682953
-0.3485844135284424
-0.2397972047328949
-0.1275118887424469
-0.013704247772693634
0.09969829767942429
0.2108863890171051
0.3182176947593689
0.42026129364967346
0.5158084034919739
0.6038867235183716
0.6837520003318787
0.7548738121986389
0.8169152140617371
0.7767738699913025
0.816349446773529
0.8471798300743103
0.86846524477005
0.8793982863426208
0.8791593909263611
0.8669191598892212
0.8418555855751038
0.8031960129737854
0.7502804398536682
0.6826695799827576
0.600273609161377
0.503520131111145
0.3935014009475708
0.27209508419036865
0.14198893308639526
0.006581149995326996
-0.13025128841400146
-0.26449745893478394
-0.39236214756965637
-0.51058429479599
-0.6166282296180725
-0.7087449431419373
-0.7859150767326355
-0.8477163910865784
-0.8941615223884583
-0.9255373477935791
-0.9422774910926819
-0.9448623061180115
-0.9337650537490845
-0.9094225764274597
-0.8722390532493591
-0.8226130604743958
-0.7609798312187195
-0.6878692507743835
-0.6039678454399109
-0.5101780891418457
-0.4076659381389618
-0.29788699746131897
-0.1825782060623169
-0.06371939927339554
0.056535638868808746
0.17595407366752625
0.29231905937194824
0.40353211760520935
0.5076848268508911
0.6031193137168884
0.6884514093399048
0.7625674605369568
0.8246046900749207
0.8739143013954163
0.9100095629692078
0.932529628276825
0.9412025213241577
0.9358277916908264
0.9162765145301819
0.8825138211250305
0.8346425890922546
0.7729609608650208
0.6980302333831787
0.6107373237609863
0.5123447775840759
0.4044940769672394
0.28917720913887024
0.16865228116512299
0.04532712697982788
-0.07836560159921646
-0.20008763670921326
-0.31768113374710083
-0.4292129874229431
-0.5329918265342712
-0.6275597214698792
-0.7116675972938538
-0.784259021282196
-0.8444452285766602
-0.8914923667907715
-0.9248098731040955
-0.9439402222633362
-0.9485630393028259
-0.9384956955909729
-0.913712203502655
-0.8743605017662048
-0.8207985758781433
-0.7536248564720154
-0.6737157106399536
-0.5822455286979675
-0.48070648312568665
-0.3708813488483429
-0.25481006503105164
-0.1347149908542633
-0.012901969254016876
0.10833390802145004
0.22681865096092224
0.3405894637107849
0.4479517638683319
0.5475248098373413
0.638249933719635
0.7193791270256042
0.7904468178749084
0.8512329459190369
0.8065913319587708
0.8503392338752747
0.8850496411323547
0.9097586870193481
0.9234842658042908
0.9252172112464905
0.9139313697814941
0.8886058330535889
0.8482867479324341
0.7921757102012634
0.7197725176811218
0.6310532689094543
0.5266600251197815
0.4080796241760254
0.2777402400970459
0.13896781206130981
-0.004211731255054474
-0.14742952585220337
-0.2863926887512207
-0.41728225350379944
-0.5370327234268188
-0.6434440612792969
-0.7351593971252441
-0.8115305304527283
-0.8724350333213806
-0.9180951118469238
-0.9489228129386902
-0.9653955101966858
-0.9679833054542542
-0.9571011662483215
-0.9330956339836121
-0.8962610363960266
-0.8468688726425171
-0.7852165102958679
-0.7116957306861877
-0.6268597841262817
-0.5314987301826477
-0.42670097947120667
-0.313891738653183
-0.19484099745750427
-0.07162297517061234
0.05345910042524338
0.17798924446105957
0.29956093430519104
0.415897399187088
0.5249451994895935
0.6249384880065918
0.7144150137901306
0.7922095060348511
0.8574197888374329
0.9093557596206665
0.9474931359291077
0.9714210033416748
0.9808169603347778
0.9754275679588318
0.9550783634185791
0.9197084307670593
0.8694257140159607
0.8045724034309387
0.7258023023605347
0.6341395974159241
0.5310152769088745
0.41825732588768005
0.2980315089225769
0.17274966835975647
0.04493584483861923
-0.08290257304906845
-0.20838859677314758
-0.32935309410095215
-0.4438805878162384
-0.5503102540969849
-0.6472256183624268
-0.7334215641021729
-0.8078842163085938
-0.8697564601898193
-0.9183269739151001
-0.9530087113380432
-0.9733319878578186
-0.9789378046989441
-0.9695879817008972
-0.9451749920845032
-0.9057504534721375
-0.851557731628418
-0.7830827236175537
-0.7010960578918457
-0.6067034602165222
-0.5013704299926758
-0.38692528009414673
-0.26553136110305786
-0.13961249589920044
-0.011747278273105621
0.11545725911855698
0.239505797624588
0.3581383526325226
0.4694229066371918
0.5718117952346802
0.6641637682914734
0.7457258701324463
0.8160911202430725
0.8751475214958191
0.8247741460800171
0.8722191452980042
0.9103448390960693
0.9380098581314087
0.9540510177612305
0.9572685360908508
0.9464539289474487
0.9204211831092834
0.8780921101570129
0.8186197876930237
0.741568386554718
0.6471152901649475
0.5362703800201416
0.4110237658023834
0.2743869423866272
0.13024461269378662
-0.016955949366092682
-0.16264477372169495
-0.3025825619697571
-0.43320611119270325
-0.5518292784690857
-0.6566639542579651
-0.7467115521430969
-0.8215938210487366
-0.8813567161560059
-0.9262998700141907
-0.9568385481834412
-0.9734089970588684
-0.9764052033424377
-0.9661538004875183
-0.94290691614151
-0.9068599939346313
-0.8581973314285278
-0.7971323132514954
-0.7239816188812256
-0.6392343640327454
-0.5436252355575562
-0.4382030665874481
-0.32436710596084595
-0.2038768231868744
-0.07882026582956314
0.048470981419086456
0.17552736401557922
0.29987892508506775
0.4191724359989166
0.531276524066925
0.6343413591384888
0.726821780204773
0.807465136051178
0.8752773404121399
0.9294731616973877
0.9694293141365051
0.9946442246437073
1.0047061443328857
0.9992974400520325
0.9782070517539978
0.9413815140724182
0.8889876008033752
0.8214890360832214
0.7397107481956482
0.6448864340782166
0.5386595129966736
0.42303594946861267
0.30029991269111633
0.17290039360523224
0.04333103448152542
-0.0859762653708458
-0.21273323893547058
-0.33485183119773865
-0.45047250390052795
-0.5579666495323181
-0.6559270024299622
-0.7431516051292419
-0.8186180591583252
-0.8814641237258911
-0.9309703707695007
-0.9665358662605286
-0.9876764416694641
-0.9940111041069031
-0.9852679371833801
-0.9612962603569031
-0.9220889806747437
-0.8678221702575684
-0.7989017367362976
-0.7160201072692871
-0.6202076077461243
-0.5128864645957947
-0.3958797752857208
-0.2714000344276428
-0.141988605260849
-0.010398216545581818
0.12053950875997543
0.24808523058891296
0.3697396516799927
0.4833662509918213
0.5872674584388733
0.6802194714546204
0.7614471316337585
0.830582320690155
0.8875887989997864
0.8307355642318726
0.8811963796615601
0.9220524430274963
0.9519787430763245
0.9696227312088013
0.9736141562461853
0.962589681148529
0.9352608323097229
0.8905234932899475
0.8276171088218689
0.7463244795799255
0.6471971869468689
0.5317382216453552
0.4024929404258728
0.26297399401664734
0.11741171032190323
-0.02964816242456436
-0.1737995743751526
-0.31116342544555664
-0.4386485517024994
-0.55403071641922
-0.6558977961540222
-0.7435030341148376
-0.8165947794914246
-0.875239372253418
-0.9196829199790955
-0.9502478241920471
-0.9672557711601257
-0.9709836840629578
-0.9616503119468689
-0.9394190907478333
-0.9044185280799866
-0.8567826151847839
-0.7967036366462708
-0.7244941592216492
-0.6406553387641907
-0.5459392666816711
-0.4414023458957672
-0.3284356892108917
-0.20876115560531616
-0.08439921587705612
0.0424070879817009
0.16928282380104065
0.29383254051208496
0.4137505888938904
0.5269024968147278
0.6313908100128174
0.7255787253379822
0.8080929517745972
0.8777934312820435
0.93374103307724
0.9751610159873962
1.00141179561615
1.0119725465774536
1.006453514099121
0.9846299290657043
0.9465004801750183
0.8923612833023071
0.8228726983070374
0.7391088604927063
0.6425650715827942
0.5351043939590454
0.41887548565864563
0.2961885929107666
0.16940566897392273
0.040845297276973724
-0.08727597445249557
-0.21287092566490173
-0.33400511741638184
-0.4489023983478546
-0.555955708026886
-0.6537333130836487
-0.7409818768501282
-0.8166216611862183
-0.8797385096549988
-0.9295708537101746
-0.9654917120933533
-0.9869999289512634
-0.9937077164649963
-0.9853418469429016
-0.9617493748664856
-0.9229179620742798
-0.8690066337585449
-0.8003911375999451
-0.7177233695983887
-0.6219803690910339
-0.5145270228385925
-0.3971400558948517
-0.2720091640949249
-0.14168834686279297
-0.008991457521915436
0.12314783781766891
0.2518526613712311
0.3744677007198334
0.4887050688266754
0.5927425026893616
0.6852667927742004
0.7654584646224976
0.832946240901947
0.887726366519928
0.8241127133369446
0.8767029643058777
0.9193900227546692
0.9506613612174988
0.968988835811615
0.9728574156761169
0.9608123898506165
0.9315604567527771
0.8841087818145752
0.8179463744163513
0.733258843421936
0.6311139464378357
0.5135756134986877
0.3836747705936432
0.24522563815116882
0.10247498005628586
-0.04030529409646988
-0.17919987440109253
-0.31093305349349976
-0.4329746663570404
-0.5435466170310974
-0.6415117383003235
-0.726233184337616
-0.7974364161491394
-0.8550784587860107
-0.8992471098899841
-0.9300938248634338
-0.9477754235267639
-0.9524288773536682
-0.9441637396812439
-0.9230678677558899
-0.8892350196838379
-0.8428011536598206
-0.783997654914856
-0.7132018804550171
-0.6309990286827087
-0.5382207036018372
-0.43597790598869324
-0.32566240429878235
-0.20893588662147522
-0.08768019825220108
0.036052532494068146
0.16010886430740356
0.2823019027709961
0.4004814624786377
0.512593686580658
0.6167327165603638
0.7111753821372986
0.7943986654281616
0.8650738596916199
0.9220626950263977
0.964393675327301
0.991256058216095
1.0020053386688232
0.9961932301521301
0.9736168384552002
0.9343889951705933
0.8790048360824585
0.8083944916725159
0.7239293456077576
0.6273700594902039
0.5207709670066833
0.40633511543273926
0.2862873375415802
0.16278105974197388
0.03784412145614624
-0.08661817759275436
-0.20879533886909485
-0.3269491195678711
-0.43940815329551697
-0.544576108455658
-0.6409687995910645
-0.7272377014160156
-0.8022023439407349
-0.8648549318313599
-0.9143637418746948
-0.9500592350959778
-0.9714269042015076
-0.9780896306037903
-0.9698038697242737
-0.9464609026908875
-0.9080926179885864
-0.854899525642395
-0.787283718585968
-0.7058943510055542
-0.6116839051246643
-0.5059615969657898
-0.3904227614402771
-0.26716646552085876
-0.138656884431839
-0.0076410844922065735
0.1229844018816948
0.2503291070461273
0.37168896198272705
0.4846961200237274
0.5874341130256653
0.6784968972206116
0.756991982460022
0.8224945664405823
0.8749796748161316
0.8047470450401306
0.858376681804657
0.9017909169197083
0.933297872543335
0.9512234926223755
0.9539638161659241
0.9400685429573059
0.9083726406097412
0.8581599593162537
0.7893535494804382
0.7026905417442322
0.5998317003250122
0.4833489954471588
0.356574147939682
0.22330519556999207
0.08744441717863083
-0.04733697324991226
-0.17785385251045227
-0.30152931809425354
-0.4163995087146759
-0.5210391879081726
-0.6144605278968811
-0.6960060000419617
-0.7652550339698792
-0.8219553232192993
-0.8659631609916687
-0.8972045183181763
-0.9156443476676941
-0.9212693572044373
-0.9140874743461609
-0.8941375613212585
-0.8615163564682007
-0.8164145350456238
-0.7591593861579895
-0.6902576088905334
-0.6104324460029602
-0.5206367373466492
-0.42205461859703064
-0.3160777986049652
-0.20426681637763977
-0.088310606777668
0.030008696019649506
0.14884606003761292
0.26631465554237366
0.3805036246776581
0.4895068109035492
0.5914533734321594
0.6845512986183167
0.7671222686767578
0.8376320004463196
0.89471036195755
0.9371694922447205
0.9640199542045593
0.9745044112205505
0.9681486487388611
0.9448253512382507
0.904827356338501
0.8489158153533936
0.7783309817314148
0.6947423219680786
0.6001333594322205
0.49664610624313354
0.3864234387874603
0.2714889645576477
0.15368571877479553
0.03468584269285202
-0.083954356610775
-0.20072349905967712
-0.3140966296195984
-0.4225103557109833
-0.524385392665863
-0.618170440196991
-0.7024059295654297
-0.7757791876792908
-0.8371649384498596
-0.8856369853019714
-0.9204788208007812
-0.9411613345146179
-0.9473400712013245
-0.9388315081596375
-0.9156091213226318
-0.8777996301651001
-0.8256947994232178
-0.7597677111625671
-0.6807098388671875
-0.5894732475280762
-0.4873119294643402
-0.37581801414489746
-0.25693899393081665
-0.13295495510101318
-0.006426014006137848
0.11991830915212631
0.24331709742546082
0.361129492521286
0.4709955155849457
0.5709474086761475
0.659493088722229
0.7356351017951965
0.7988497614860535
0.8490213751792908
0.7726572751998901
0.8260488510131836
0.868905782699585
0.8993876576423645
0.91573166847229
0.9163339734077454
0.899880588054657
0.865495502948761
0.8129163384437561
0.7426503896713257
0.6560605764389038
0.5553549528121948
0.4434359073638916
0.32363227009773254
0.19938775897026062
0.07395219057798386
-0.049822159111499786
-0.1695719063282013
-0.2834118902683258
-0.38985922932624817
-0.4877385199069977
-0.5760990977287292
-0.654163122177124
-0.7212841510772705
-0.7769389152526855
-0.8207057118415833
-0.8522603511810303
-0.8713613152503967
-0.8778505325317383
-0.8716506361961365
-0.8527868390083313
-0.8214014768600464
-0.7777901291847229
-0.7224298119544983
-0.6560007929801941
-0.5793952345848083
-0.4936979115009308
-0.40015318989753723
-0.3001153767108917
-0.1950024962425232
-0.08626306802034378
0.024638332426548004
0.13620588183403015
0.2468883991241455
0.3550560772418976
0.45899006724357605
0.5568950176239014
0.6469410061836243
0.7273139357566833
0.7962824702262878
0.8522528409957886
0.8938254117965698
0.9198552966117859
0.9295101165771484
0.922345757484436
0.8983784914016724
0.8581421971321106
0.8027027249336243
0.7336042523384094
0.6527527570724487
0.5622376799583435
0.4641549289226532
0.36045321822166443
0.25284722447395325
0.1428212821483612
0.031679801642894745
-0.07935520261526108
-0.1890423595905304
-0.29605257511138916
-0.3989344537258148
-0.4961297810077667
-0.5860390663146973
-0.667096734046936
-0.7378614544868469
-0.79707932472229
-0.8437318801879883
-0.8770454525947571
-0.8964923620223999
-0.9017719626426697
-0.8927883505821228
-0.8696329593658447
-0.8325603604316711
-0.7819864749908447
-0.7184924483299255
-0.6428385376930237
-0.5559892058372498
-0.45914825797080994
-0.35378384590148926
-0.24164548516273499
-0.12476124614477158
-0.005400620400905609
0.1139964684844017
0.2309156358242035
0.3429062068462372
0.4476991891860962
0.5433383584022522
0.6282626390457153
0.7013556361198425
0.7619485855102539
0.8097808957099915
0.7280276417732239
0.7797379493713379
0.8206145167350769
0.8487289547920227
0.8623160719871521
0.8599053025245667
0.8404713869094849
0.8035998344421387
0.7496262192726135
0.6797062158584595
0.5957848429679871
0.5004354119300842
0.3965986669063568
0.28728020191192627
0.1752750277519226
0.06299417465925217
-0.047595180571079254
-0.15491774678230286
-0.25769171118736267
-0.35480716824531555
-0.4452407658100128
-0.5280067324638367
-0.6021491885185242
-0.6667642593383789
-0.7210302352905273
-0.7642339468002319
-0.7957945466041565
-0.8152689337730408
-0.8223687410354614
-0.8169645667076111
-0.7991003394126892
-0.7690130472183228
-0.7271503210067749
-0.6741760969161987
-0.6109660267829895
-0.5385785698890686
-0.4582003057003021
-0.3710882067680359
-0.2785062789916992
-0.1816748082637787
-0.08176692575216293
0.0200800821185112
0.12271527200937271
0.22491347789764404
0.32531800866127014
0.422404944896698
0.5144796371459961
0.5997118353843689
0.6761966347694397
0.7420485615730286
0.7954914569854736
0.8349667191505432
0.8592262864112854
0.867435097694397
0.8592562079429626
0.8349175453186035
0.7952374815940857
0.7415756583213806
0.6757085919380188
0.5996474623680115
0.5154309272766113
0.42494598031044006
0.32982322573661804
0.23141267895698547
0.13082757592201233
0.029046230018138885
-0.07298100739717484
-0.17422887682914734
-0.2735244333744049
-0.369510680437088
-0.4606722295284271
-0.545387327671051
-0.6220229864120483
-0.6890410780906677
-0.7450867295265198
-0.7890577912330627
-0.8201412558555603
-0.8378204703330994
-0.8418565392494202
-0.8322582840919495
-0.8092488050460815
-0.77322918176651
-0.7247574925422668
-0.6645312309265137
-0.5933849215507507
-0.5123027563095093
-0.42243313789367676
-0.3251018822193146
-0.22183537483215332
-0.11435774713754654
-0.004580922424793243
0.10543002933263779
0.2135162651538849
0.3175119459629059
0.4153365194797516
0.505111038684845
0.5852446556091309
0.6545060276985168
0.7120569348335266
0.7574453949928284
0.6711913347244263
0.719659686088562
0.7570620775222778
0.7814772725105286
0.7912691235542297
0.7852546572685242
0.7628653645515442
0.7242830395698547
0.670501172542572
0.6032727360725403
0.5249354839324951
0.4381411671638489
0.3455463945865631
0.2495546042919159
0.15215110778808594
0.05486106127500534
-0.041165418922901154
-0.1350279450416565
-0.22591766715049744
-0.31299567222595215
-0.39532503485679626
-0.47184786200523376
-0.5414256453514099
-0.602897584438324
-0.655155599117279
-0.697207510471344
-0.7282299399375916
-0.7476044297218323
-0.7549405097961426
-0.7500905394554138
-0.7331644296646118
-0.7045369148254395
-0.6648380160331726
-0.6149370074272156
-0.5558908581733704
-0.48888543248176575
-0.4151466190814972
-0.3358668088912964
-0.2521475851535797
-0.1649712324142456
-0.07521305233240128
0.01629769057035446
0.10871503502130508
0.20108941197395325
0.2922934889793396
0.38097697496414185
0.46555227041244507
0.5442227125167847
0.6150533556938171
0.6760751008987427
0.725417971611023
0.7614515423774719
0.7829264402389526
0.789100706577301
0.779832124710083
0.7556186318397522
0.7175610065460205
0.6672421097755432
0.6065340042114258
0.537371039390564
0.46155470609664917
0.3806229829788208
0.2958064079284668
0.2080674171447754
0.11819159239530563
0.026896916329860687
-0.065058134496212
-0.1567869782447815
-0.24722015857696533
-0.3350794017314911
-0.41889774799346924
-0.49707403779029846
-0.567966639995575
-0.6299995183944702
-0.6817682385444641
-0.7221349477767944
-0.750277578830719
-0.7657082080841064
-0.7682613730430603
-0.7580563426017761
-0.7354484796524048
-0.7009770274162292
-0.655329167842865
-0.599305272102356
-0.533804714679718
-0.45981600880622864
-0.37841999530792236
-0.2907935380935669
-0.19822093844413757
-0.1021038070321083
-0.003960497677326202
0.09457074850797653
0.1917475461959839
0.2857683002948761
0.3748246729373932
0.45718738436698914
0.5312914252281189
0.5958206057548523
0.649768590927124
0.6924727559089661
0.6026353240013123
0.6462488770484924
0.6787072420120239
0.6982288956642151
0.7034686207771301
0.6936948299407959
0.6689337491989136
0.6300196051597595
0.5785431265830994
0.51666259765625
0.4468165338039398
0.3714098632335663
0.29254716634750366
0.21186822652816772
0.1305171549320221
0.04922672361135483