# vtk DataFile Version 3.0
2D PINN Solution
ASCII
DATASET STRUCTURED_GRID
DIMENSIONS 100 100 1
POINTS 10000 float
-1.0 -1.0 0.0
-0.9797979797979798 -1.0 0.0
-0.9595959595959596 -1.0 0.0
-0.9393939393939394 -1.0 0.0
-0.9191919191919192 -1.0 0.0
-0.898989898989899 -1.0 0.0
-0.8787878787878788 -1.0 0.0
-0.8585858585858586 -1.0 0.0
-0.8383838383838383 -1.0 0.0
-0.8181818181818181 -1.0 0.0
-0.797979797979798 -1.0 0.0
-0.7777777777777778 -1.0 0.0
-0.7575757575757576 -1.0 0.0
-0.7373737373737373 -1.0 0.0
-0.7171717171717171 -1.0 0.0
-0.696969696969697 -1.0 0.0
-0.6767676767676767 -1.0 0.0
-0.6565656565656566 -1.0 0.0
-0.6363636363636364 -1.0 0.0
-0.6161616161616161 -1.0 0.0
-0.5959595959595959 -1.0 0.0
-0.5757575757575757 -1.0 0.0
-0.5555555555555556 -1.0 0.0
-0.5353535353535352 -1.0 0.0
-0.5151515151515151 -1.0 0.0
-0.4949494949494949 -1.0 0.0
-0.4747474747474747 -1.0 0.0
-0.4545454545454545 -1.0 0.0
-0.43434343434343425 -1.0 0.0
-0.41414141414141414 -1.0 0.0
-0.3939393939393939 -1.0 0.0
-0.3737373737373737 -1.0 0.0
-0.3535353535353535 -1.0 0.0
-0.33333333333333326 -1.0 0.0
-0.31313131313131304 -1.0 0.0
-0.2929292929292928 -1.0 0.0
-0.2727272727272727 -1.0 0.0
-0.2525252525252525 -1.0 0.0
-0.23232323232323226 -1.0 0.0
-0.21212121212121204 -1.0 0.0
-0.19191919191919182 -1.0 0.0
-0.1717171717171716 -1.0 0.0
-0.1515151515151515 -1.0 0.0
-0.13131313131313127 -1.0 0.0
-0.11111111111111105 -1.0 0.0
-0.09090909090909083 -1.0 0.0
-0.07070707070707061 -1.0 0.0
-0.050505050505050386 -1.0 0.0
-0.030303030303030276 -1.0 0.0
-0.010101010101010055 -1.0 0.0
0.010101010101010166 -1.0 0.0
0.030303030303030498 -1.0 0.0
0.05050505050505061 -1.0 0.0
0.07070707070707072 -1.0 0.0
0.09090909090909105 -1.0 0.0
0.11111111111111116 -1.0 0.0
0.1313131313131315 -1.0 0.0
0.1515151515151516 -1.0 0.0
0.1717171717171717 -1.0 0.0
0.19191919191919204 -1.0 0.0
0.21212121212121215 -1.0 0.0
0.2323232323232325 -1.0 0.0
0.2525252525252526 -1.0 0.0
0.27272727272727293 -1.0 0.0
0.29292929292929304 -1.0 0.0
0.31313131313131315 -1.0 0.0
0.3333333333333335 -1.0 0.0
0.3535353535353536 -1.0 0.0
0.3737373737373739 -1.0 0.0
0.39393939393939403 -1.0 0.0
0.41414141414141437 -1.0 0.0
0.4343434343434345 -1.0 0.0
0.4545454545454546 -1.0 0.0
0.4747474747474749 -1.0 0.0
0.49494949494949503 -1.0 0.0
0.5151515151515154 -1.0 0.0
0.5353535353535355 -1.0 0.0
0.5555555555555556 -1.0 0.0
0.5757575757575759 -1.0 0.0
0.595959595959596 -1.0 0.0
0.6161616161616164 -1.0 0.0
0.6363636363636365 -1.0 0.0
0.6565656565656568 -1.0 0.0
0.6767676767676769 -1.0 0.0
0.696969696969697 -1.0 0.0
0.7171717171717173 -1.0 0.0
0.7373737373737375 -1.0 0.0
0.7575757575757578 -1.0 0.0
0.7777777777777779 -1.0 0.0
0.7979797979797982 -1.0 0.0
0.8181818181818183 -1.0 0.0
0.8383838383838385 -1.0 0.0
0.8585858585858588 -1.0 0.0
0.8787878787878789 -1.0 0.0
0.8989898989898992 -1.0 0.0
0.9191919191919193 -1.0 0.0
0.9393939393939394 -1.0 0.0
0.9595959595959598 -1.0 0.0
0.9797979797979799 -1.0 0.0
1.0 -1.0 0.0
-1.0 -0.9797979797979798 0.0
-0.9797979797979798 -0.9797979797979798 0.0
-0.9595959595959596 -0.9797979797979798 0.0
-0.9393939393939394 -0.9797979797979798 0.0
-0.9191919191919192 -0.9797979797979798 0.0
-0.898989898989899 -0.9797979797979798 0.0
-0.8787878787878788 -0.9797979797979798 0.0
-0.8585858585858586 -0.9797979797979798 0.0
-0.8383838383838383 -0.9797979797979798 0.0
-0.8181818181818181 -0.9797979797979798 0.0
-0.797979797979798 -0.9797979797979798 0.0
-0.7777777777777778 -0.9797979797979798 0.0
-0.7575757575757576 -0.9797979797979798 0.0
-0.7373737373737373 -0.9797979797979798 0.0
-0.7171717171717171 -0.9797979797979798 0.0
-0.696969696969697 -0.9797979797979798 0.0
-0.6767676767676767 -0.9797979797979798 0.0
-0.6565656565656566 -0.9797979797979798 0.0
-0.6363636363636364 -0.9797979797979798 0.0
-0.6161616161616161 -0.9797979797979798 0.0
-0.5959595959595959 -0.9797979797979798 0.0
-0.5757575757575757 -0.9797979797979798 0.0
-0.5555555555555556 -0.9797979797979798 0.0
-0.5353535353535352 -0.9797979797979798 0.0
-0.5151515151515151 -0.9797979797979798 0.0
-0.4949494949494949 -0.9797979797979798 0.0
-0.4747474747474747 -0.9797979797979798 0.0
-0.4545454545454545 -0.9797979797979798 0.0
-0.43434343434343425 -0.9797979797979798 0.0
-0.41414141414141414 -0.9797979797979798 0.0
-0.3939393939393939 -0.9797979797979798 0.0
-0.3737373737373737 -0.9797979797979798 0.0
-0.3535353535353535 -0.9797979797979798 0.0
-0.33333333333333326 -0.9797979797979798 0.0
-0.31313131313131304 -0.9797979797979798 0.0
-0.2929292929292928 -0.9797979797979798 0.0
-0.2727272727272727 -0.9797979797979798 0.0
-0.2525252525252525 -0.9797979797979798 0.0
-0.23232323232323226 -0.9797979797979798 0.0
-0.21212121212121204 -0.9797979797979798 0.0
-0.19191919191919182 -0.9797979797979798 0.0
-0.1717171717171716 -0.9797979797979798 0.0
-0.1515151515151515 -0.9797979797979798 0.0
-0.13131313131313127 -0.9797979797979798 0.0
-0.11111111111111105 -0.9797979797979798 0.0
-0.09090909090909083 -0.9797979797979798 0.0
-0.07070707070707061 -0.9797979797979798 0.0
-0.050505050505050386 -0.9797979797979798 0.0
-0.030303030303030276 -0.9797979797979798 0.0
-0.010101010101010055 -0.9797979797979798 0.0
0.010101010101010166 -0.9797979797979798 0.0
0.030303030303030498 -0.9797979797979798 0.0
0.05050505050505061 -0.9797979797979798 0.0
0.07070707070707072 -0.9797979797979798 0.0
0.09090909090909105 -0.9797979797979798 0.0
0.11111111111111116 -0.9797979797979798 0.0
0.1313131313131315 -0.9797979797979798 0.0
0.1515151515151516 -0.9797979797979798 0.0
0.1717171717171717 -0.9797979797979798 0.0
0.19191919191919204 -0.9797979797979798 0.0
0.21212121212121215 -0.9797979797979798 0.0
0.2323232323232325 -0.9797979797979798 0.0
0.2525252525252526 -0.9797979797979798 0.0
0.27272727272727293 -0.9797979797979798 0.0
0.29292929292929304 -0.9797979797979798 0.0
0.31313131313131315 -0.9797979797979798 0.0
0.3333333333333335 -0.9797979797979798 0.0
0.3535353535353536 -0.9797979797979798 0.0
0.3737373737373739 -0.9797979797979798 0.0
0.39393939393939403 -0.9797979797979798 0.0
0.41414141414141437 -0.9797979797979798 0.0
0.4343434343434345 -0.9797979797979798 0.0
0.4545454545454546 -0.9797979797979798 0.0
0.4747474747474749 -0.9797979797979798 0.0
0.49494949494949503 -0.9797979797979798 0.0
0.5151515151515154 -0.9797979797979798 0.0
0.5353535353535355 -0.9797979797979798 0.0
0.5555555555555556 -0.9797979797979798 0.0
0.5757575757575759 -0.9797979797979798 0.0
0.595959595959596 -0.9797979797979798 0.0
0.6161616161616164 -0.9797979797979798 0.0
0.6363636363636365 -0.9797979797979798 0.0
0.6565656565656568 -0.9797979797979798 0.0
0.6767676767676769 -0.9797979797979798 0.0
0.696969696969697 -0.9797979797979798 0.0
0.7171717171717173 -0.9797979797979798 0.0
0.7373737373737375 -0.9797979797979798 0.0
0.7575757575757578 -0.9797979797979798 0.0
0.7777777777777779 -0.9797979797979798 0.0
0.7979797979797982 -0.9797979797979798 0.0
0.8181818181818183 -0.9797979797979798 0.0
0.8383838383838385 -0.9797979797979798 0.0
0.8585858585858588 -0.9797979797979798 0.0
0.8787878787878789 -0.9797979797979798 0.0
0.8989898989898992 -0.9797979797979798 0.0
0.9191919191919193 -0.9797979797979798 0.0
0.9393939393939394 -0.9797979797979798 0.0
0.9595959595959598 -0.9797979797979798 0.0
0.9797979797979799 -0.9797979797979798 0.0
1.0 -0.9797979797979798 0.0
-1.0 -0.9595959595959596 0.0
-0.9797979797979798 -0.9595959595959596 0.0
-0.9595959595959596 -0.9595959595959596 0.0
-0.9393939393939394 -0.9595959595959596 0.0
-0.9191919191919192 -0.9595959595959596 0.0
-0.898989898989899 -0.9595959595959596 0.0
-0.8787878787878788 -0.9595959595959596 0.0
-0.8585858585858586 -0.9595959595959596 0.0
-0.8383838383838383 -0.9595959595959596 0.0
-0.8181818181818181 -0.9595959595959596 0.0
-0.797979797979798 -0.9595959595959596 0.0
-0.7777777777777778 -0.9595959595959596 0.0
-0.7575757575757576 -0.9595959595959596 0.0
-0.7373737373737373 -0.9595959595959596 0.0
-0.7171717171717171 -0.9595959595959596 0.0
-0.696969696969697 -0.9595959595959596 0.0
-0.6767676767676767 -0.9595959595959596 0.0
-0.6565656565656566 -0.9595959595959596 0.0
-0.6363636363636364 -0.9595959595959596 0.0
-0.6161616161616161 -0.9595959595959596 0.0
-0.5959595959595959 -0.9595959595959596 0.0
-0.5757575757575757 -0.9595959595959596 0.0
-0.5555555555555556 -0.9595959595959596 0.0
-0.5353535353535352 -0.9595959595959596 0.0
-0.5151515151515151 -0.9595959595959596 0.0
-0.4949494949494949 -0.9595959595959596 0.0
-0.4747474747474747 -0.9595959595959596 0.0
-0.4545454545454545 -0.9595959595959596 0.0
-0.43434343434343425 -0.9595959595959596 0.0
-0.41414141414141414 -0.9595959595959596 0.0
-0.3939393939393939 -0.9595959595959596 0.0
-0.3737373737373737 -0.9595959595959596 0.0
-0.3535353535353535 -0.9595959595959596 0.0
-0.33333333333333326 -0.9595959595959596 0.0
-0.31313131313131304 -0.9595959595959596 0.0
-0.2929292929292928 -0.9595959595959596 0.0
-0.2727272727272727 -0.9595959595959596 0.0
-0.2525252525252525 -0.9595959595959596 0.0
-0.23232323232323226 -0.9595959595959596 0.0
-0.21212121212121204 -0.9595959595959596 0.0
-0.19191919191919182 -0.9595959595959596 0.0
-0.1717171717171716 -0.9595959595959596 0.0
-0.1515151515151515 -0.9595959595959596 0.0
-0.13131313131313127 -0.9595959595959596 0.0
-0.11111111111111105 -0.9595959595959596 0.0
-0.09090909090909083 -0.9595959595959596 0.0
-0.07070707070707061 -0.9595959595959596 0.0
-0.050505050505050386 -0.9595959595959596 0.0
-0.030303030303030276 -0.9595959595959596 0.0
-0.010101010101010055 -0.9595959595959596 0.0
0.010101010101010166 -0.9595959595959596 0.0
0.030303030303030498 -0.9595959595959596 0.0
0.05050505050505061 -0.9595959595959596 0.0
0.07070707070707072 -0.9595959595959596 0.0
0.09090909090909105 -0.9595959595959596 0.0
0.11111111111111116 -0.9595959595959596 0.0
0.1313131313131315 -0.9595959595959596 0.0
0.1515151515151516 -0.9595959595959596 0.0
0.1717171717171717 -0.9595959595959596 0.0
0.19191919191919204 -0.9595959595959596 0.0
0.21212121212121215 -0.9595959595959596 0.0
[...]
POINT_DATA 10000
SCALARS u float 1
LOOKUP_TABLE default
0.01701643317937851
0.003411106765270233
-0.010567761957645416
-0.024853236973285675
-0.03931925445795059
-0.05376479774713516
-0.06791508942842484
-0.08142346888780594
-0.09389392286539078
-0.10492391139268875
-0.11415255814790726
-0.12130419164896011
-0.12620988488197327
-0.12880298495292664
-0.12908530235290527
-0.12710022926330566
-0.1229042336344719
-0.11656925827264786
-0.10819683223962784
-0.09794674068689346
-0.08606284111738205
-0.07288441807031631
-0.058825887739658356
-0.04432658106088638
-0.029782943427562714
-0.015497945249080658
-0.00163239985704422
0.011790521442890167
0.02485855668783188
0.03772632032632828
0.050550855696201324
0.063435398042202
0.07637166231870651
0.08920969814062119
0.10163744539022446
0.11319822818040848
0.1233249232172966
0.13140535354614258
0.1368541419506073
0.1391889452934265
0.13808894157409668
0.13343295454978943
0.1253146231174469
0.11403148621320724
0.1000637337565422
0.08402495831251144
0.06661119312047958
0.04854171723127365
0.03048556298017502
0.013006262481212616
-0.0034903958439826965
-0.01877715438604355
-0.032800786197185516
-0.045648254454135895
-0.05749369412660599
-0.06853578239679337
-0.07894476503133774
-0.08881240338087082
-0.09812178462743759
-0.10671951621770859
-0.11430428177118301
-0.12044522911310196
-0.1246396079659462
-0.12641668319702148
-0.12546047568321228
-0.12169288843870163
-0.11531207710504532
-0.1067381277680397
-0.09652627259492874
-0.08525531738996506
-0.07342631369829178
-0.06139827519655228
-0.04934278875589371
-0.037245653569698334
-0.024928413331508636
-0.012107737362384796
0.001540355384349823
0.016289927065372467
0.03227626532316208
0.04942668229341507
0.0674063041806221
0.0856017991900444
0.1031540259718895
0.11902957409620285
0.1321430206298828
0.14148971438407898
0.14629292488098145
0.146116703748703
0.14094993472099304
0.1312330961227417
0.11783378571271896
0.10197683423757553
0.085152767598629
0.06899236887693405
0.05515935271978378
0.04522400349378586
0.04057403653860092
0.04233010858297348
0.051281802356243134
0.06785883754491806
0.004234574735164642
0.004090629518032074
0.003576837480068207
0.002909444272518158
0.002311311662197113
0.0019804760813713074
0.0020509883761405945
0.002566419541835785
0.0034529194235801697
0.004515938460826874
0.0054654404520988464
0.00597333163022995
0.005771242082118988
0.004735134541988373
0.0029451027512550354
0.0006746873259544373
-0.0016750618815422058
-0.0036813244223594666
-0.005001135170459747
-0.005454860627651215
-0.005069799721240997
-0.004073984920978546
-0.002839602530002594
-0.0017943009734153748
-0.0013172104954719543
-0.0016521736979484558
-0.002855949103832245
-0.004787839949131012
-0.007144175469875336
-0.009515009820461273
-0.011458717286586761
-0.012573383748531342
-0.012558035552501678
-0.011265881359577179
-0.008724026381969452
-0.0051456019282341
-0.0009013190865516663
0.0035254135727882385
0.007608495652675629
0.010857842862606049
0.012884296476840973
0.013455681502819061
0.012521125376224518
0.01020834594964981
0.006801478564739227
0.0027056410908699036
-0.0016064122319221497
-0.005642317235469818
-0.008949734270572662
-0.011168532073497772
-0.012080810964107513
-0.011637918651103973
-0.009972803294658661
-0.007370762526988983
-0.004227586090564728
-0.0009826645255088806
0.001940213143825531
0.004189036786556244
0.0055211856961250305
0.005831725895404816
0.0051752254366874695
0.003773890435695648
0.0019952282309532166
0.0002890452742576599
-0.0009260252118110657
-0.0013731792569160461
-0.0010054633021354675
-9.410083293914795e-06
0.0012531057000160217
0.0023496970534324646
0.002886824309825897
0.0025998875498771667
0.0014054998755455017
-0.0005856230854988098
-0.0030834004282951355
-0.005663372576236725
-0.00783691555261612
-0.009117014706134796
-0.009107209742069244
-0.007564626634120941
-0.004466123878955841
-3.419071435928345e-05
0.005258046090602875
0.010732285678386688
0.015585832297801971
0.019000761210918427
0.020272158086299896
0.01893164962530136
0.014838136732578278
0.008226148784160614
-0.0002813264727592468
-0.00972757488489151
-0.018896766006946564
-0.02642100304365158
-0.030895330011844635
-0.030982069671154022
-0.025516532361507416
-0.013582594692707062
0.00542990118265152
0.03177972882986069
-0.009235180914402008
0.004146479070186615
0.01722308248281479
0.03033217042684555
0.04376944154500961
0.05770089477300644
0.0720941349864006
0.08666136115789413
0.10084619373083115
0.11386056989431381
0.12478744238615036
0.13275325298309326
0.13710981607437134
0.13760322332382202
0.1344199776649475
0.12813088297843933
0.1195359006524086
0.10947857052087784
0.09867250174283981
0.08759499341249466
0.0764319971203804
0.06510122865438461
0.05332881957292557
0.04076259583234787
0.02709396928548813
0.012161992490291595
-0.003983043134212494
-0.02106369286775589
-0.03860265761613846
-0.055980198085308075
-0.07251796871423721
-0.08755167573690414
-0.10050327330827713
-0.1109331026673317
-0.11858294159173965
-0.12338835746049881
-0.12547707557678223
-0.12514498829841614
-0.12279864400625229
-0.118892140686512
-0.1138516291975975
-0.1080159917473793
-0.10159467905759811
-0.09465683251619339
-0.08714256435632706
-0.0788942351937294
-0.06969668716192245
-0.05931992083787918
-0.047566719353199005
-0.03431462496519089
-0.019556529819965363
-0.0034314170479774475
0.013757608830928802
0.03155330568552017
0.049378760159015656
0.06659414619207382
0.08256008476018906
0.09669902175664902
0.10853687673807144
0.11773691326379776
0.12411990016698837
0.12769046425819397
0.12863460183143616
0.12730202078819275
0.12413042038679123
0.11953679472208023
0.1138027235865593
0.10701156407594681
0.09905748814344406
0.08972027152776718
0.07877064496278763
0.06607029587030411
0.05163862556219101
0.03568284958600998
0.018585629761219025
0.0008773729205131531
-0.016826100647449493
-0.03387201577425003
-0.04965049773454666
-0.06365137547254562
-0.07552026957273483
-0.08510508388280869
-0.09247470647096634
-0.09791059046983719
-0.10186447948217392
-0.10488741844892502
-0.10752355307340622
-0.11020726710557938
-0.11316900700330734
-0.11636092513799667
-0.11943245679140091
-0.1217421367764473
-0.1224125400185585
-0.1204124465584755
-0.11465839296579361
-0.10410722345113754
-0.08786197751760483
-0.06523468345403671
-0.03581901639699936
0.00048070400953292847
-0.023281671106815338
0.0037297233939170837
0.030535511672496796
0.05753817409276962
0.08504226058721542
0.11313360184431076
0.14157453179359436
0.16973945498466492
0.1966177523136139
0.22090068459510803
0.24115923047065735
0.25609374046325684
0.2647932469844818
0.2669162154197693
0.2627350687980652
0.2530277371406555
0.23886466026306152
0.22137781977653503
0.20156022906303406
0.18013867735862732
0.15752092003822327
0.13382014632225037
0.10894005745649338
0.08268197625875473
0.05487493425607681
0.025480009615421295
-0.005339242517948151
-0.0371866449713707
-0.06945032626390457
-0.1013561561703682
-0.1320352852344513
-0.1606065332889557
-0.18624740839004517
-0.20825493335723877
-0.22608885169029236
-0.239402174949646
-0.24805381894111633
-0.2521078884601593
-0.25180119276046753
-0.24750152230262756
-0.23963895440101624
-0.2286430299282074
-0.21488898992538452
-0.19866207242012024
-0.18015488982200623
-0.15947937965393066
-0.1366986632347107
-0.11186287552118301
-0.08504483848810196
-0.056376658380031586
-0.026081331074237823
0.005503110587596893
0.03790133446455002
0.07050018757581711
0.10256611555814743
0.13329127430915833
0.16185420751571655
0.18747994303703308
0.20949196815490723
0.2273470163345337
0.2406623363494873
0.24923524260520935
0.2530655562877655
0.252358615398407
0.24750041961669922
0.2389744520187378
0.22725048661231995
0.2126847803592682
0.19546395540237427
0.175635427236557
0.15318813920021057
0.12814593315124512
0.10065110772848129
0.07100532203912735
0.03967449814081192
0.00727032870054245
-0.025488488376140594
-0.057825662195682526
-0.0889570489525795
-0.11814183741807938
-0.1447378396987915
-0.16824164986610413
-0.1883295178413391
-0.20487460494041443
-0.2179408073425293
-0.22774705290794373
-0.2346092164516449
-0.23886021971702576
-0.24075999855995178
-0.24042484164237976
-0.23776844143867493
-0.23249253630638123
-0.22410660982131958
-0.21197286248207092
-0.19538632035255432
-0.17365485429763794
-0.1461842656135559
-0.11254493147134781
-0.07254574447870255
-0.026262424886226654
-0.037713803350925446
0.003027521073818207
0.04367240518331528
0.08459209650754929
0.12601912021636963
0.16788989305496216
0.20973145961761475
0.25059571862220764
0.2890952229499817
0.3235350549221039
0.3521463871002197
0.3733762502670288
0.3861621022224426
0.3901077210903168
0.38550570607185364
0.37320476770401
0.35438770055770874
0.33032897114753723
0.3021942973136902
0.2709122896194458
0.23711931705474854
0.20117980241775513
0.1632431447505951
0.12335024029016495
0.08153592795133591
0.037932388484478
-0.007164396345615387
-0.05324951559305191
-0.0996105894446373
-0.14535802602767944
-0.18948552012443542
-0.23094087839126587
-0.2686970829963684
-0.30181828141212463
-0.3295089900493622
-0.35115164518356323
-0.36633536219596863
-0.3748740553855896
-0.3768030107021332
-0.37235912680625916
-0.36193743348121643
-0.34603187441825867
-0.3251715898513794
-0.29986637830734253
-0.2705773413181305
-0.23770424723625183
-0.20159950852394104
-0.16259628534317017
-0.12103783339262009
-0.07730985432863235
-0.03186645358800888
0.014746032655239105
0.061874277889728546
0.10874751955270767
0.15448740124702454
0.198139488697052
0.23872405290603638
0.2752920389175415
0.3069891333580017
0.3330913186073303
0.3530384302139282
0.3664538562297821
0.3731668293476105
0.37323734164237976
0.3669572174549103
0.3548133671283722
0.3374004065990448
0.31530722975730896
0.2890176773071289
0.2588794529438019
0.22513943910598755
0.18802064657211304
0.14780515432357788
0.10489527136087418
0.05983617156744003
0.013310350477695465
-0.03388439863920212
-0.08086302131414413
-0.12669917941093445
-0.1704568862915039
-0.2112407684326172
-0.2482348084449768
-0.2807500660419464
-0.3082636296749115
-0.3304472863674164
-0.34716200828552246
-0.35844871401786804
-0.3644790053367615
-0.36548641324043274
-0.36170393228530884
-0.3532905578613281
-0.34029319882392883
-0.32262250781059265
-0.30007344484329224
-0.27236250042915344
-0.23918679356575012
-0.20028814673423767
-0.15552988648414612
-0.10494134575128555
-0.04877666383981705
-0.052267320454120636
0.002235792577266693
0.05672728270292282
0.1114354357123375
0.16641858220100403
0.22140032052993774
0.27565187215805054
0.32795605063438416
0.3766670227050781
0.4198841154575348
0.4556931257247925
0.48245474696159363
0.4990520179271698
0.5050341486930847
0.5006287693977356
0.4866205155849457
0.46414944529533386
0.4344957172870636
0.39890238642692566
0.35845017433166504
0.3139992952346802
0.2661905288696289
0.21547937393188477
0.16221168637275696
0.10669194906949997
0.04927540570497513
-0.009578950703144073
-0.0692504420876503
-0.12894165515899658
-0.18768170475959778
-0.244368314743042
-0.2978224456310272
-0.3468557894229889
-0.3903389871120453
-0.42725494503974915
-0.4567486345767975
-0.47816208004951477
-0.4910666048526764
-0.4952877461910248
-0.4909069240093231
-0.47824493050575256
-0.4578213393688202
-0.4302882254123688
-0.3963659405708313
-0.35678228735923767
-0.3122313320636749
-0.2633651793003082
-0.2107982337474823
-0.15513810515403748
-0.09700965136289597
-0.03708907216787338
0.023876942694187164
0.08505401760339737
0.1455114781856537
0.20422491431236267
0.26010236144065857
0.3120177686214447
0.3588692843914032
0.39964011311531067
0.4334483742713928
0.45958104729652405
0.47752025723457336
0.48696187138557434
0.48784229159355164
0.48035886883735657
0.4649637043476105
0.4423101246356964
0.4131587743759155
0.3782564699649811
0.33824798464775085
0.2936572730541229
0.2449323534965515
0.1925162971019745
0.13692203164100647
0.07877450436353683
0.018825389444828033
-0.04204948991537094
-0.10287404805421829
-0.16258832812309265
-0.22009125351905823
-0.2742612957954407
-0.3240107595920563
-0.3683285415172577
-0.4063362181186676
-0.437326580286026
-0.4608176648616791
-0.4765531122684479
-0.48450902104377747
-0.48484745621681213
-0.4778654873371124
-0.46392253041267395
-0.4433806240558624
-0.41655072569847107
-0.3836626708507538
-0.34487390518188477
-0.3002980649471283
-0.2500440776348114
-0.19427677989006042
-0.13327351212501526
-0.06747452169656754
-0.06661561876535416
0.0015270635485649109
0.0696912333369255
0.13783684372901917
0.20575007796287537
0.27288785576820374
0.3382786512374878
0.4005209505558014
0.4578626751899719
0.5083798170089722
0.5501958131790161
0.5817159414291382
0.6018248200416565
0.60999995470047
0.6063223481178284
0.5913991332054138
0.566213071346283
0.5319543480873108
0.4898649752140045
0.4411260187625885
0.3867948353290558
0.32778283953666687
0.2648754119873047
0.19875618815422058
0.13005325198173523
0.05938931554555893
-0.012570463120937347
-0.08506616204977036
-0.15720903873443604
-0.22796478867530823
-0.29616525769233704
-0.36054402589797974
-0.41979673504829407
-0.47264328598976135
-0.5178914070129395
-0.5544907450675964
-0.5815752744674683
-0.5985123515129089
-0.6049296259880066
-0.6007505655288696
-0.5861956477165222
-0.5617653727531433
-0.5281880497932434
-0.4863525927066803
-0.4372260868549347
-0.38178953528404236
-0.3209919333457947
-0.25573471188545227
-0.18688127398490906
-0.11529015749692917
-0.041836149990558624
0.032548658549785614
0.10686054080724716
0.18001234531402588
0.2508367598056793
0.31810060143470764
0.3805401623249054
0.4369107782840729
0.48604926466941833
0.5269283056259155
0.5587035417556763
0.5807433724403381
0.5926491618156433
0.5942733883857727
0.5857428908348083
0.5674678683280945
0.5401199460029602
0.5045645833015442
0.4617413282394409
0.41255420446395874
0.35779765248298645
0.29815247654914856
0.2342391312122345
0.16669461131095886
0.09623462706804276
0.023687265813350677
-0.04999005049467087
-0.12372566014528275
-0.19633749127388
-0.2665656805038452
-0.3330947458744049
-0.3946034014225006
-0.44980332255363464
-0.4975091516971588
-0.5366931557655334
-0.566558301448822
-0.5865707397460938
-0.5964988470077515
-0.5964016318321228
-0.5865901708602905
-0.5675732493400574
-0.5399725437164307
-0.504456102848053
-0.46167102456092834
-0.4122088849544525
-0.3566025197505951
-0.29534223675727844
-0.22891655564308167
-0.15786269307136536
-0.08281805366277695
-0.08038894087076187
0.001023702323436737
0.08241786807775497
0.16336709260940552
0.24330317974090576
0.3213886618614197
0.3964580297470093
0.4670313000679016
0.5314058661460876
0.5877962112426758
0.6344954371452332
0.6700350642204285
0.6933197975158691
0.7037221789360046
0.7011180520057678
0.685872495174408
0.6587521433830261
0.62080317735672
0.5732206702232361
0.517235517501831
0.45405319333076477
0.3848216235637665
0.3106270730495453
0.23249435424804688
0.15139442682266235
0.0682571604847908
-0.01600121706724167
-0.10044235736131668
-0.18406206369400024
-0.26575490832328796
-0.34430357813835144
-0.4183896481990814
-0.48663273453712463
-0.5476532578468323
-0.6001316905021667
-0.6428744792938232
-0.6748642921447754
-0.695307731628418
-0.7036796808242798
-0.699757993221283
-0.6836538910865784
-0.6558113694190979
-0.6169787049293518
-0.5681494474411011
-0.5104799270629883
-0.44520142674446106
-0.37354519963264465
-0.29669901728630066
-0.21578845381736755
-0.13189715147018433
-0.04609430581331253
0.040527306497097015
0.12681499123573303
0.21154582500457764
0.2934170663356781
0.37106287479400635
0.4430863559246063
0.5081055164337158
0.5648195147514343
0.6120675802230835
0.6488872170448303
0.6745553016662598
0.6886073350906372
0.690852701663971
0.6813858151435852
0.6605936884880066
0.6291480660438538
0.5879634618759155
0.5380998253822327
0.4806496798992157
0.41663727164268494
0.3469649851322174
0.27244001626968384
0.19384148716926575
0.11198803037405014
0.027800194919109344
-0.05767529457807541
-0.14325445890426636
-0.2276298701763153
-0.309394896030426
-0.3870600461959839
-0.45910224318504333
-0.5240107178688049
-0.5803534388542175
-0.6268506050109863
-0.6624428033828735
-0.6863647699356079
-0.6981956362724304
-0.6978700757026672
-0.6856834888458252
-0.6622257828712463
-0.6283140778541565
-0.5849080085754395
-0.533017098903656
-0.47363486886024475
-0.40769675374031067
-0.3360721170902252
-0.2595820724964142
-0.17903771996498108
-0.0952913835644722
-0.0931943729519844
0.0007804259657859802
0.09461625665426254
0.18740904331207275
0.27818238735198975
0.36581435799598694
0.44901204109191895
0.526332676410675
0.5962491631507874
0.6572291851043701
0.7078092694282532
0.7466751933097839
0.7727434039115906
0.785250723361969
0.7838437557220459
0.7686255574226379
0.7401397824287415
0.6992853283882141
0.6471906304359436
0.5851028561592102
0.5143142938613892
0.4361392557621002
0.3519037067890167
0.26293033361434937
0.17052039504051208
0.07592999190092087
-0.01963513344526291
-0.11500970274209976
-0.2090303599834442
-0.3004966974258423
-0.3881414234638214
-0.4706134498119354
-0.5464984774589539
-0.6143665313720703
-0.6728286147117615
-0.7206055521965027
-0.756583571434021
-0.7798693776130676
-0.7898306250572205
-0.7861373424530029
-0.7687963247299194
-0.738172173500061
-0.6949809193611145
-0.6402497887611389
-0.5752491354942322
-0.5014011263847351
-0.4201832711696625
-0.3330543339252472
-0.24140864610671997
-0.14656421542167664
-0.04978425055742264
0.0476846918463707
0.14456826448440552
0.23953253030776978
0.33116891980171204
0.4179985821247101
0.4985046088695526
0.5711794495582581
0.6345900893211365
0.6874500513076782
0.7286902070045471
0.7575072050094604
0.7733903527259827
0.7761337757110596
0.7658334970474243
0.7428814768791199
0.7079551815986633
0.6619815230369568
0.6060770153999329
0.5414462685585022
0.46927452087402344
0.3906598389148712
0.3065892457962036
0.2179918885231018
0.1258142590522766
0.03108755499124527
-0.0650329664349556
-0.1612437665462494
-0.2561037838459015
-0.3480590283870697
-0.4354659914970398
-0.516633927822113
-0.5898805260658264
-0.6535959243774414
-0.7063141465187073
-0.7467910051345825
-0.7740883231163025
-0.7876290678977966
-0.7872425317764282
-0.7731678485870361
-0.7460254430770874
-0.7067543864250183
-0.6565226912498474
-0.5966268181800842
-0.5283992290496826
-0.4531414210796356
-0.37208202481269836
-0.28637078404426575
-0.1971057951450348
-0.10536415129899979
-0.10463724285364151
0.0007783398032188416
0.10587003082036972
0.20920169353485107
0.309379905462265
0.4050351679325104
0.4948199391365051
0.5774211287498474
0.6515702605247498
0.7160387635231018
0.7696255445480347
0.8111612200737
0.8395514488220215
0.853887140750885
0.8535853028297424
0.8385123610496521
0.8090229034423828
0.7658970952033997
0.7102082371711731
0.6431958079338074
0.56618732213974
0.4805808365345001
0.38785091042518616
0.2895386219024658
0.18722423911094666
0.08247967809438705
-0.023177199065685272
-0.1283075511455536
-0.2315385937690735
-0.3315357565879822
-0.42695900797843933
-0.5164334177970886
-0.5985440015792847
-0.6718578934669495
-0.7349762320518494
-0.7865942120552063
-0.8255634307861328
-0.8509442210197449
-0.8620502352714539
-0.8584827780723572
-0.8401684165000916
-0.8073861598968506
-0.7607792019844055
-0.7013450264930725
-0.63038569688797
-0.5494351387023926
-0.46015533804893494
-0.36424514651298523
-0.2633582353591919
-0.15905767679214478
-0.05281635373830795
0.05396021157503128
0.1598837971687317
0.26354119181632996
0.36345112323760986
0.4580630362033844
0.5457696318626404
0.6249604821205139
0.6940866708755493
0.75174880027771
0.7967742085456848
0.8282815217971802
0.8457229733467102
0.8488882184028625
0.8378941416740417
0.8131581544876099
0.7753737568855286
0.7254707217216492
0.6645784378051758
0.5939432382583618
0.5148468613624573
0.42852726578712463
0.33613574504852295
0.23876255750656128
0.13749408721923828
0.033490948379039764
-0.07196330279111862
-0.17743560671806335
-0.2813458740711212
-0.38199636340141296
-0.4776054322719574
-0.5663504004478455
-0.6464277505874634
-0.7161068320274353
-0.7738168835639954