# vtk DataFile Version 3.0
2D PINN Solution
ASCII
DATASET STRUCTURED_GRID
DIMENSIONS 100 100 1
POINTS 10000 float
-1.0 -1.0 0.0
-0.9797979797979798 -1.0 0.0
-0.9595959595959596 -1.0 0.0
-0.9393939393939394 -1.0 0.0
-0.9191919191919192 -1.0 0.0
-0.898989898989899 -1.0 0.0
-0.8787878787878788 -1.0 0.0
-0.8585858585858586 -1.0 0.0
-0.8383838383838383 -1.0 0.0
-0.8181818181818181 -1.0 0.0
-0.797979797979798 -1.0 0.0
-0.7777777777777778 -1.0 0.0
-0.7575757575757576 -1.0 0.0
-0.7373737373737373 -1.0 0.0
-0.7171717171717171 -1.0 0.0
-0.696969696969697 -1.0 0.0
-0.6767676767676767 -1.0 0.0
-0.6565656565656566 -1.0 0.0
-0.6363636363636364 -1.0 0.0
-0.6161616161616161 -1.0 0.0
-0.5959595959595959 -1.0 0.0
-0.5757575757575757 -1.0 0.0
-0.5555555555555556 -1.0 0.0
-0.5353535353535352 -1.0 0.0
-0.5151515151515151 -1.0 0.0
-0.4949494949494949 -1.0 0.0
-0.4747474747474747 -1.0 0.0
-0.4545454545454545 -1.0 0.0
-0.43434343434343425 -1.0 0.0
-0.41414141414141414 -1.0 0.0
-0.3939393939393939 -1.0 0.0
-0.3737373737373737 -1.0 0.0
-0.3535353535353535 -1.0 0.0
-0.33333333333333326 -1.0 0.0
-0.31313131313131304 -1.0 0.0
-0.2929292929292928 -1.0 0.0
-0.2727272727272727 -1.0 0.0
-0.2525252525252525 -1.0 0.0
-0.23232323232323226 -1.0 0.0
-0.21212121212121204 -1.0 0.0
-0.19191919191919182 -1.0 0.0
-0.1717171717171716 -1.0 0.0
-0.1515151515151515 -1.0 0.0
-0.13131313131313127 -1.0 0.0
-0.11111111111111105 -1.0 0.0
-0.09090909090909083 -1.0 0.0
-0.07070707070707061 -1.0 0.0
-0.050505050505050386 -1.0 0.0
-0.030303030303030276 -1.0 0.0
-0.010101010101010055 -1.0 0.0
0.010101010101010166 -1.0 0.0
0.030303030303030498 -1.0 0.0
0.05050505050505061 -1.0 0.0
0.07070707070707072 -1.0 0.0
0.09090909090909105 -1.0 0.0
0.11111111111111116 -1.0 0.0
0.1313131313131315 -1.0 0.0
0.1515151515151516 -1.0 0.0
0.1717171717171717 -1.0 0.0
0.19191919191919204 -1.0 0.0
0.21212121212121215 -1.0 0.0
0.2323232323232325 -1.0 0.0
0.2525252525252526 -1.0 0.0
0.27272727272727293 -1.0 0.0
0.29292929292929304 -1.0 0.0
0.31313131313131315 -1.0 0.0
0.3333333333333335 -1.0 0.0
0.3535353535353536 -1.0 0.0
0.3737373737373739 -1.0 0.0
0.39393939393939403 -1.0 0.0
0.41414141414141437 -1.0 0.0
0.4343434343434345 -1.0 0.0
0.4545454545454546 -1.0 0.0
0.4747474747474749 -1.0 0.0
0.49494949494949503 -1.0 0.0
0.5151515151515154 -1.0 0.0
0.5353535353535355 -1.0 0.0
0.5555555555555556 -1.0 0.0
0.5757575757575759 -1.0 0.0
0.595959595959596 -1.0 0.0
0.6161616161616164 -1.0 0.0
0.6363636363636365 -1.0 0.0
0.6565656565656568 -1.0 0.0
0.6767676767676769 -1.0 0.0
0.696969696969697 -1.0 0.0
0.7171717171717173 -1.0 0.0
0.7373737373737375 -1.0 0.0
0.7575757575757578 -1.0 0.0
0.7777777777777779 -1.0 0.0
0.7979797979797982 -1.0 0.0
0.8181818181818183 -1.0 0.0
0.8383838383838385 -1.0 0.0
0.8585858585858588 -1.0 0.0
0.8787878787878789 -1.0 0.0
0.8989898989898992 -1.0 0.0
0.9191919191919193 -1.0 0.0
0.9393939393939394 -1.0 0.0
0.9595959595959598 -1.0 0.0
0.9797979797979799 -1.0 0.0
1.0 -1.0 0.0
-1.0 -0.9797979797979798 0.0
-0.9797979797979798 -0.9797979797979798 0.0
-0.9595959595959596 -0.9797979797979798 0.0
-0.9393939393939394 -0.9797979797979798 0.0
-0.9191919191919192 -0.9797979797979798 0.0
-0.898989898989899 -0.9797979797979798 0.0
-0.8787878787878788 -0.9797979797979798 0.0
-0.8585858585858586 -0.9797979797979798 0.0
-0.8383838383838383 -0.9797979797979798 0.0
-0.8181818181818181 -0.9797979797979798 0.0
-0.797979797979798 -0.9797979797979798 0.0
-0.7777777777777778 -0.9797979797979798 0.0
-0.7575757575757576 -0.9797979797979798 0.0
-0.7373737373737373 -0.9797979797979798 0.0
-0.7171717171717171 -0.9797979797979798 0.0
-0.696969696969697 -0.9797979797979798 0.0
-0.6767676767676767 -0.9797979797979798 0.0
-0.6565656565656566 -0.9797979797979798 0.0
-0.6363636363636364 -0.9797979797979798 0.0
-0.6161616161616161 -0.9797979797979798 0.0
-0.5959595959595959 -0.9797979797979798 0.0
-0.5757575757575757 -0.9797979797979798 0.0
-0.5555555555555556 -0.9797979797979798 0.0
-0.5353535353535352 -0.9797979797979798 0.0
-0.5151515151515151 -0.9797979797979798 0.0
-0.4949494949494949 -0.9797979797979798 0.0
-0.4747474747474747 -0.9797979797979798 0.0
-0.4545454545454545 -0.9797979797979798 0.0
-0.43434343434343425 -0.9797979797979798 0.0
-0.41414141414141414 -0.9797979797979798 0.0
-0.3939393939393939 -0.9797979797979798 0.0
-0.3737373737373737 -0.9797979797979798 0.0
-0.3535353535353535 -0.9797979797979798 0.0
-0.33333333333333326 -0.9797979797979798 0.0
-0.31313131313131304 -0.9797979797979798 0.0
-0.2929292929292928 -0.9797979797979798 0.0
-0.2727272727272727 -0.9797979797979798 0.0
-0.2525252525252525 -0.9797979797979798 0.0
-0.23232323232323226 -0.9797979797979798 0.0
-0.21212121212121204 -0.9797979797979798 0.0
-0.19191919191919182 -0.9797979797979798 0.0
-0.1717171717171716 -0.9797979797979798 0.0
-0.1515151515151515 -0.9797979797979798 0.0
-0.13131313131313127 -0.9797979797979798 0.0
-0.11111111111111105 -0.9797979797979798 0.0
-0.09090909090909083 -0.9797979797979798 0.0
-0.07070707070707061 -0.9797979797979798 0.0
-0.050505050505050386 -0.9797979797979798 0.0
-0.030303030303030276 -0.9797979797979798 0.0
-0.010101010101010055 -0.9797979797979798 0.0
0.010101010101010166 -0.9797979797979798 0.0
0.030303030303030498 -0.9797979797979798 0.0
0.05050505050505061 -0.9797979797979798 0.0
0.07070707070707072 -0.9797979797979798 0.0
0.09090909090909105 -0.9797979797979798 0.0
0.11111111111111116 -0.9797979797979798 0.0
0.1313131313131315 -0.9797979797979798 0.0
0.1515151515151516 -0.9797979797979798 0.0
0.1717171717171717 -0.9797979797979798 0.0
0.19191919191919204 -0.9797979797979798 0.0
0.21212121212121215 -0.9797979797979798 0.0
0.2323232323232325 -0.9797979797979798 0.0
0.2525252525252526 -0.9797979797979798 0.0
0.27272727272727293 -0.9797979797979798 0.0
0.29292929292929304 -0.9797979797979798 0.0
0.31313131313131315 -0.9797979797979798 0.0
0.3333333333333335 -0.9797979797979798 0.0
0.3535353535353536 -0.9797979797979798 0.0
0.3737373737373739 -0.9797979797979798 0.0
0.39393939393939403 -0.9797979797979798 0.0
0.41414141414141437 -0.9797979797979798 0.0
0.4343434343434345 -0.9797979797979798 0.0
0.4545454545454546 -0.9797979797979798 0.0
0.4747474747474749 -0.9797979797979798 0.0
0.49494949494949503 -0.9797979797979798 0.0
0.5151515151515154 -0.9797979797979798 0.0
0.5353535353535355 -0.9797979797979798 0.0
0.5555555555555556 -0.9797979797979798 0.0
0.5757575757575759 -0.9797979797979798 0.0
0.595959595959596 -0.9797979797979798 0.0
0.6161616161616164 -0.9797979797979798 0.0
0.6363636363636365 -0.9797979797979798 0.0
0.6565656565656568 -0.9797979797979798 0.0
0.6767676767676769 -0.9797979797979798 0.0
0.696969696969697 -0.9797979797979798 0.0
0.7171717171717173 -0.9797979797979798 0.0
0.7373737373737375 -0.9797979797979798 0.0
0.7575757575757578 -0.9797979797979798 0.0
0.7777777777777779 -0.9797979797979798 0.0
0.7979797979797982 -0.9797979797979798 0.0
0.8181818181818183 -0.9797979797979798 0.0
0.8383838383838385 -0.9797979797979798 0.0
0.8585858585858588 -0.9797979797979798 0.0
0.8787878787878789 -0.9797979797979798 0.0
0.8989898989898992 -0.9797979797979798 0.0
0.9191919191919193 -0.9797979797979798 0.0
0.9393939393939394 -0.9797979797979798 0.0
0.9595959595959598 -0.9797979797979798 0.0
0.9797979797979799 -0.9797979797979798 0.0
1.0 -0.9797979797979798 0.0
-1.0 -0.9595959595959596 0.0
-0.9797979797979798 -0.9595959595959596 0.0
-0.9595959595959596 -0.9595959595959596 0.0
-0.9393939393939394 -0.9595959595959596 0.0
-0.9191919191919192 -0.9595959595959596 0.0
-0.898989898989899 -0.9595959595959596 0.0
-0.8787878787878788 -0.9595959595959596 0.0
-0.8585858585858586 -0.9595959595959596 0.0
-0.8383838383838383 -0.9595959595959596 0.0
-0.8181818181818181 -0.9595959595959596 0.0
-0.797979797979798 -0.9595959595959596 0.0
-0.7777777777777778 -0.9595959595959596 0.0
-0.7575757575757576 -0.9595959595959596 0.0
-0.7373737373737373 -0.9595959595959596 0.0
-0.7171717171717171 -0.9595959595959596 0.0
-0.696969696969697 -0.9595959595959596 0.0
-0.6767676767676767 -0.9595959595959596 0.0
-0.6565656565656566 -0.9595959595959596 0.0
-0.6363636363636364 -0.9595959595959596 0.0
-0.6161616161616161 -0.9595959595959596 0.0
-0.5959595959595959 -0.9595959595959596 0.0
-0.5757575757575757 -0.9595959595959596 0.0
-0.5555555555555556 -0.9595959595959596 0.0
-0.5353535353535352 -0.9595959595959596 0.0
-0.5151515151515151 -0.9595959595959596 0.0
-0.4949494949494949 -0.9595959595959596 0.0
-0.4747474747474747 -0.9595959595959596 0.0
-0.4545454545454545 -0.9595959595959596 0.0
-0.43434343434343425 -0.9595959595959596 0.0
-0.41414141414141414 -0.9595959595959596 0.0
-0.3939393939393939 -0.9595959595959596 0.0
-0.3737373737373737 -0.9595959595959596 0.0
-0.3535353535353535 -0.9595959595959596 0.0
-0.33333333333333326 -0.9595959595959596 0.0
-0.31313131313131304 -0.9595959595959596 0.0
-0.2929292929292928 -0.9595959595959596 0.0
-0.2727272727272727 -0.9595959595959596 0.0
-0.2525252525252525 -0.9595959595959596 0.0
-0.23232323232323226 -0.9595959595959596 0.0
-0.21212121212121204 -0.9595959595959596 0.0
-0.19191919191919182 -0.9595959595959596 0.0
-0.1717171717171716 -0.9595959595959596 0.0
-0.1515151515151515 -0.9595959595959596 0.0
-0.13131313131313127 -0.9595959595959596 0.0
-0.11111111111111105 -0.9595959595959596 0.0
-0.09090909090909083 -0.9595959595959596 0.0
-0.07070707070707061 -0.9595959595959596 0.0
-0.050505050505050386 -0.9595959595959596 0.0
-0.030303030303030276 -0.9595959595959596 0.0
-0.010101010101010055 -0.9595959595959596 0.0
0.010101010101010166 -0.9595959595959596 0.0
0.030303030303030498 -0.9595959595959596 0.0
0.05050505050505061 -0.9595959595959596 0.0
0.07070707070707072 -0.9595959595959596 0.0
0.09090909090909105 -0.9595959595959596 0.0
0.11111111111111116 -0.9595959595959596 0.0
0.1313131313131315 -0.9595959595959596 0.0
0.1515151515151516 -0.9595959595959596 0.0
0.1717171717171717 -0.9595959595959596 0.0
0.19191919191919204 -0.9595959595959596 0.0
0.21212121212121215 -0.9595959595959596 0.0
[...]
POINT_DATA 10000
SCALARS u float 1
LOOKUP_TABLE default
0.057936571538448334
0.038231752812862396
0.016290239989757538
-0.008291132748126984
-0.03560606390237808
-0.065390445291996
-0.09700191766023636
-0.12944716215133667
-0.16143661737442017
-0.19150617718696594
-0.2181602418422699
-0.24003371596336365
-0.2560648024082184
-0.2656136155128479
-0.2685334384441376
-0.26515868306159973
-0.2562272548675537
-0.2427327036857605
-0.2257535755634308
-0.20628151297569275
-0.18508756160736084
-0.1626504361629486
-0.13915574550628662
-0.11454728990793228
-0.08862284570932388
-0.06114707142114639
-0.03195977956056595
-0.0010740682482719421
0.031258873641490936
0.06451266258955002
0.09788282960653305
0.13032323122024536
0.1606169044971466
0.18748831748962402
0.2097422182559967
0.22643208503723145
0.23701751232147217
0.24147537350654602
0.24033251404762268
0.2345747947692871
0.22545161843299866
0.21420326828956604
0.20180746912956238
0.1888023316860199
0.17523962259292603
0.16075602173805237
0.14473462104797363
0.12649184465408325
0.10545080155134201
0.08127181977033615
0.05391461402177811
0.023661218583583832
-0.008911289274692535
-0.04298711568117142
-0.07757153362035751
-0.11157730966806412
-0.14389625191688538
-0.17348548769950867
-0.19944140315055847
-0.2210557460784912
-0.23785355687141418
-0.24959629774093628
-0.2562558948993683
-0.2579694986343384
-0.25498896837234497
-0.2476418912410736
-0.23630520701408386
-0.22140660881996155
-0.2034214735031128
-0.18286916613578796
-0.16029292345046997
-0.13622382283210754
-0.11113990098237991
-0.08542517572641373
-0.05933857709169388
-0.033009059727191925
-0.0064508989453315735
0.020399026572704315
0.04761523753404617
0.07521837204694748
0.1030982956290245
0.13095349073410034
0.15826186537742615
0.18428099155426025
0.20809659361839294
0.2287045121192932
0.2451188564300537
0.25649017095565796
0.26219913363456726
0.26194289326667786
0.2557674050331116
0.24406984448432922
0.2275756299495697
0.20727947354316711
0.18437662720680237
0.16018038988113403
0.13604548573493958
0.11329793184995651
0.09316904097795486
0.07675764709711075
0.035064034163951874
0.02995654195547104
0.022352568805217743
0.01183735579252243
-0.0017041340470314026
-0.01805577427148819
-0.036662377417087555
-0.056653328239917755
-0.07690999656915665
-0.09617013484239578
-0.11317289620637894
-0.12681880593299866
-0.1363200545310974
-0.14131376147270203
-0.14189693331718445
-0.13858461380004883
-0.13219383358955383
-0.12366855889558792
-0.11390645056962967
-0.10360345989465714
-0.09316069632768631
-0.0826670303940773
-0.07193297892808914
-0.060586608946323395
-0.04818662256002426
-0.034342654049396515
-0.018811725080013275
-0.0015860572457313538
0.01706574112176895
0.03658526390790939
0.05614859610795975
0.07473471015691757
0.09123548120260239
0.1045895591378212
0.11395477503538132
0.11886455863714218
0.119353286921978
0.11599340289831161
0.10983388870954514
0.10219920426607132
0.09442632645368576
0.08758825808763504
0.0822850689291954
0.0785556510090828
0.07592860609292984
0.07356827706098557
0.0704706683754921
0.06566613167524338
0.0583779439330101
0.04813533276319504
0.03481820970773697
0.01866047829389572
0.00020106881856918335
-0.01978195458650589
-0.04036123305559158
-0.060550935566425323
-0.07940609008073807
-0.0961047038435936
-0.11002067476511002
-0.12076995521783829
-0.12821608781814575
-0.1324421763420105
-0.1336863934993744
-0.13227465748786926
-0.12854591012001038
-0.12281348556280136
-0.11535433679819107
-0.10642171651124954
-0.09627947956323624
-0.08521964401006699
-0.07355909794569016
-0.061616890132427216
-0.04967427998781204
-0.037930719554424286
-0.026473455131053925
-0.015260256826877594
-0.00413426011800766
0.007148377597332001
0.018864743411540985
0.031259678304195404
0.04448268562555313
0.058514393866062164
0.07312937825918198
0.08787930756807327
0.10210945457220078
0.11502448469400406
0.1257748305797577
0.13356590270996094
0.13776859641075134
0.13800173997879028
0.1341935694217682
0.12660062313079834
0.11578264087438583
0.10256227105855942
0.08795272558927536
0.07307403534650803
0.059082500636577606
0.047095634043216705
0.03814110904932022
0.033114515244960785
0.010672442615032196
0.019501112401485443
0.025826148688793182
0.029250584542751312
0.029649488627910614
0.02718820422887802
0.022314243018627167
0.01572342962026596
0.008296273648738861
0.0009960159659385681
-0.0052659884095191956
-0.00976599007844925
-0.012096889317035675
-0.012234188616275787
-0.010532952845096588
-0.007645227015018463
-0.004375554621219635
-0.0015078261494636536
0.0003527030348777771
0.0008904263377189636
0.00011346489191055298
-0.0016625896096229553
-0.003906376659870148
-0.005973599851131439
-0.007234610617160797
-0.007184959948062897
-0.005537249147891998
-0.0022834911942481995
0.002286382019519806
0.007591657340526581
0.012819699943065643
0.017031438648700714
0.019293658435344696
0.01884753257036209
0.015281595289707184
0.008664987981319427
-0.0003897622227668762
-0.010771669447422028
-0.02104804664850235
-0.029724694788455963
-0.03553924709558487
-0.03769852966070175
-0.03601401299238205
-0.03089267760515213
-0.02322111278772354
-0.014174379408359528
-0.0050118789076805115
0.003114156424999237
0.009299241006374359
0.012974731624126434
0.013941384851932526
0.012357361614704132
0.008677951991558075
0.0035788938403129578
-0.002147473394870758
-0.007697872817516327
-0.012358449399471283
-0.015591539442539215
-0.017095379531383514
-0.016820944845676422
-0.01495593786239624
-0.011862747371196747
-0.007999472320079803
-0.003829188644886017
0.00024957209825515747
0.003948323428630829
0.007093869149684906
0.009602807462215424
0.011435024440288544
0.012554608285427094
0.012907363474369049
0.012424863874912262
0.011055268347263336
0.008796684443950653
0.005734674632549286
0.0020578131079673767
-0.0019423142075538635
-0.0058928802609443665
-0.009375609457492828
-0.01198277622461319
-0.013370208442211151
-0.01331648975610733
-0.01177198439836502
-0.008883543312549591
-0.004998810589313507
-0.0006286725401878357
0.003613315522670746
0.007098577916622162
0.009280718863010406
0.009778939187526703
0.008442334830760956
0.005380548536777496
0.000960029661655426
-0.004234530031681061
-0.009453274309635162
-0.01385112851858139
-0.016551442444324493
-0.016712002456188202
-0.013560332357883453
-0.006434299051761627
-0.015484072268009186
0.006673924624919891
0.02657153457403183
0.04383688420057297
0.05833183974027634
0.07015281170606613
0.07960190623998642
0.08715211600065231
0.09337224811315536
0.09883537143468857
0.1040080115199089
0.10914575308561325
0.11421992629766464
0.118900828063488
0.12261020392179489
0.12464138120412827
0.1243017241358757
0.12107198685407639
0.11471133679151535
0.105313740670681
0.09329362958669662
0.07932370156049728
0.06422535330057144
0.048854030668735504
0.033978722989559174
0.02017635852098465
0.007764630019664764
-0.003246702253818512
-0.013154901564121246
-0.02252117544412613
-0.03208158165216446
-0.04261825233697891
-0.05479270964860916
-0.06896976381540298
-0.08506650477647781
-0.10246767848730087
-0.12004298716783524
-0.1362919807434082
-0.14958667755126953
-0.15846198797225952
-0.16187620162963867
-0.15938469767570496
-0.1511751115322113
-0.1379987597465515
-0.1210099533200264
-0.10157152265310287
-0.08106184750795364
-0.060716427862644196
-0.04150346666574478
-0.024063415825366974
-0.008681170642375946
0.00468764454126358
0.016359351575374603
0.02683182805776596
0.036674998700618744
0.04642640799283981
0.056484974920749664
0.06704208999872208
0.07804477959871292
0.08920840173959732
0.10006392747163773
0.11003600805997849
0.11853014677762985
0.12500891089439392
0.12906008958816528
0.13042712211608887
0.12902376055717468
0.12490864843130112
0.11824964731931686
0.10926242917776108
0.09817387908697128
0.08519434183835983
0.07052899152040482
0.05439566820859909
0.037054695188999176
0.01883365958929062
0.00013109296560287476
-0.018587328493595123
-0.036811672151088715
-0.054024092853069305
-0.06973693519830704
-0.08353830128908157
-0.09513697773218155
-0.10438802093267441
-0.11131475120782852
-0.11609441787004471
-0.1190282329916954
-0.12048646062612534
-0.12083945423364639
-0.12038927525281906
-0.11931432038545609
-0.11763272434473038
-0.11519458144903183
-0.11169683188199997
-0.10671774297952652
-0.09975991398096085
-0.09029913693666458
-0.07782099395990372
-0.06185799092054367
-0.042009346187114716
-0.04340008646249771
-0.008446939289569855
0.024723075330257416
0.05575063079595566
0.0844639465212822
0.11085142940282822
0.13503047823905945
0.15718215703964233
0.17749476432800293
0.1960740089416504
0.21287336945533752
0.2276395559310913
0.2399057149887085
0.24903056025505066
0.25429755449295044
0.2550450265407562
0.25079455971717834
0.24135595560073853
0.22687295079231262
0.20782852172851562
0.18498286604881287
0.1592884659767151
0.1317799985408783
0.1034572646021843
0.07517876476049423
0.04757463186979294
0.020988009870052338
-0.004549004137516022
-0.029291518032550812
-0.05371234565973282
-0.07838689535856247
-0.10383332520723343
-0.1303369402885437
-0.1577935814857483
-0.18559738993644714
-0.21263471245765686
-0.23739290237426758
-0.25817495584487915
-0.2733728885650635
-0.2817312777042389
-0.2825332581996918
-0.2756836712360382
-0.2616747319698334
-0.24147018790245056
-0.21633878350257874
-0.18768057227134705
-0.15687426924705505
-0.1251414716243744
-0.09346667677164078
-0.06253982335329056
-0.032746635377407074
-0.004196204245090485
0.023222319781780243
0.049746058881282806
0.0756366178393364
0.10107409209012985
0.1260697841644287
0.15042167901992798
0.1737135350704193
0.1953555941581726
0.214659184217453
0.23091799020767212
0.24348393082618713
0.25181877613067627
0.2555341422557831
0.25441744923591614
0.24844461679458618
0.23778042197227478
0.22275233268737793
0.20379945635795593
0.18142065405845642
0.156116783618927
0.12836942076683044
0.09863615781068802
0.06736920028924942
0.03503289073705673
0.0021251216530799866
-0.030817516148090363
-0.0632253959774971
-0.09450674802064896
-0.12407318502664566
-0.15136438608169556
-0.17588454484939575
-0.19722238183021545
-0.21508076786994934
-0.22928759455680847
-0.23979127407073975
-0.24664083123207092
-0.24995717406272888
-0.2498953938484192
-0.24660548567771912
-0.24020102620124817
-0.230744868516922
-0.21823576092720032
-0.20261794328689575
-0.1837943196296692
-0.16163840889930725
-0.13601475954055786
-0.10679469257593155
-0.07387018948793411
-0.07281286269426346
-0.02553126960992813
0.020651929080486298
0.06535925716161728
0.10834025591611862
0.1494303047657013
0.18849244713783264
0.2253575623035431
0.2597590386867523
0.2912888526916504
0.31936120986938477
0.3432333469390869
0.36205679178237915
0.3749810457229614
0.38126441836357117
0.3803991377353668
0.3721853196620941
0.3567819893360138
0.3346887528896332
0.3067028820514679
0.2738387882709503
0.23723173141479492
0.19803768396377563
0.1573323905467987
0.11602426320314407
0.07478003948926926
0.03398626297712326
-0.0062570348381996155
-0.04609189182519913
-0.08580992370843887
-0.12571117281913757
-0.16593796014785767
-0.20631036162376404
-0.24620571732521057
-0.28452810645103455
-0.31978026032447815
-0.3502494990825653
-0.3742561638355255
-0.3904016613960266
-0.39776334166526794
-0.39598965644836426
-0.38529208302497864
-0.36636507511138916
-0.34025290608406067
-0.3082015812397003
-0.27152612805366516
-0.23149845004081726
-0.1892591416835785
-0.14575842022895813
-0.10172989219427109
-0.0576801672577858
-0.013918556272983551
0.02938953787088394
0.07214192301034927
0.11420192569494247
0.15531912446022034
0.19507023692131042
0.23284277319908142
0.2678801715373993
0.29934197664260864
0.32639530301094055
0.348283976316452
0.36437365412712097
0.374178022146225
0.37736406922340393
0.3737679421901703
0.3634140193462372
0.3465301990509033
0.32355159521102905
0.29509037733078003
0.2618759572505951
0.22468656301498413
0.18428432941436768
0.14138415455818176
0.0966469869017601
0.050691477954387665
0.004120208323001862
-0.04246365278959274
-0.0884382501244545
-0.13316062092781067
-0.1759663224220276
-0.21617987751960754
-0.2531307339668274
-0.28617703914642334
-0.31472745537757874
-0.3382708728313446
-0.3563973307609558
-0.3688153922557831
-0.3753582537174225
-0.3759857714176178
-0.3707706332206726
-0.359883189201355
-0.3435662090778351
-0.3221109211444855
-0.2958328425884247
-0.26504573225975037
-0.23005077242851257
-0.19111880660057068
-0.1484871804714203
-0.1023668423295021
-0.10320601612329483
-0.04401863366365433
0.014923982322216034
0.07317768782377243
0.13035541772842407
0.1860676407814026
0.23985439538955688
0.29112476110458374
0.33911851048469543
0.3828932046890259
0.42135998606681824
0.4533627927303314
0.47779378294944763
0.49372193217277527
0.5005046725273132
0.4978613555431366
0.4859037399291992
0.46510758996009827
0.4362567365169525
0.4003649652004242
0.3585872948169708
0.3121354579925537
0.2621975541114807
0.20986074209213257
0.15604594349861145
0.10145551711320877
0.04654944688081741
-0.008439786732196808
-0.06344760209321976
-0.11846747249364853
-0.17340409755706787
-0.22791990637779236
-0.28131014108657837
-0.3324485123157501
-0.379841685295105
-0.4217761158943176
-0.456542044878006
-0.4826628863811493
-0.49908247590065
-0.5052623152732849
-0.5011879801750183
-0.48730412125587463
-0.46439746022224426
-0.43347975611686707
-0.3956676423549652
-0.35209962725639343
-0.30386748909950256
-0.25197550654411316
-0.19731882214546204
-0.14066952466964722
-0.08268368989229202
-0.023922331631183624
0.03510262817144394
0.093871109187603
0.15178194642066956
0.2081085741519928
0.26197549700737
0.3123926818370819
0.35831570625305176
0.39873436093330383
0.4327470362186432
0.45960733294487
0.47874248027801514
0.48973986506462097
0.4923367202281952
0.4864226281642914
0.47205695509910583
0.4495033621788025
0.4192562401294708
0.3820367157459259
0.3387463092803955
0.29039156436920166
0.23799732327461243
0.18253925442695618
0.1249052956700325
0.06589411944150925
0.006237156689167023
-0.05337978154420853
-0.1122741773724556
-0.1697508692741394
-0.22507700324058533
-0.2774798572063446
-0.32614198327064514
-0.3702230155467987
-0.40887704491615295
-0.44129201769828796
-0.46673110127449036
-0.4845809042453766
-0.4943906366825104
-0.4959099590778351
-0.4891011416912079
-0.4741474688053131
-0.4514259397983551
-0.42147448658943176
-0.3849431574344635
-0.34253963828086853
-0.2949804365634918
-0.24295005202293396
-0.1870710551738739
-0.12789306044578552
-0.1338338553905487
-0.06315699964761734
0.008245669305324554
0.07980241626501083
0.15091261267662048
0.2208799421787262
0.288848876953125
0.3537587523460388
0.4143390953540802
0.4691542088985443
0.5167004466056824
0.5555444359779358
0.5844662189483643
0.6025931239128113
0.6094719171524048
0.6050963997840881
0.5898634195327759
0.5645024180412292
0.5299842357635498
0.4874264597892761
0.43801605701446533
0.38294512033462524
0.323350191116333
0.2602735459804535
0.19461938738822937
0.12713158130645752
0.058388642966747284
-0.011164970695972443
-0.08114918321371078
-0.15113604068756104
-0.22052374482154846
-0.2884238660335541
-0.35360196232795715
-0.4145071506500244
-0.4693996012210846
-0.516539454460144
-0.5544013977050781
-0.581841230392456
-0.5981989502906799
-0.6032999157905579
-0.5973992943763733
-0.5810742974281311
-0.5551075339317322
-0.520389974117279
-0.4778384864330292
-0.42835763096809387
-0.3728182017803192
-0.31206443905830383
-0.24692630767822266
-0.178229421377182
-0.10681233555078506
-0.03354426473379135
0.040656499564647675
0.11478676646947861
0.18774375319480896
0.25831496715545654
0.32520923018455505
0.38712000846862793
0.44280606508255005
0.4911668002605438
0.5312995910644531
0.5625082850456238
0.5842950344085693
0.5963231325149536
0.5983983278274536
0.5904574394226074
0.5725918412208557
0.5450881123542786
0.5084643959999084
0.4634874761104584
0.4111574590206146
0.35263967514038086
0.2891717255115509
0.22196894884109497
0.15215861797332764
0.0807482972741127
0.008630611002445221
-0.06338430196046829
-0.1345263123512268
-0.20402541756629944
-0.2710737884044647
-0.33480104804039
-0.39426562190055847
-0.44845566153526306
-0.4963187873363495
-0.5367999076843262
-0.5688973069190979
-0.5917282700538635
-0.6046023964881897
-0.6070747971534729
-0.598991334438324
-0.5805096626281738
-0.552082896232605
-0.5144271850585938
-0.4684578478336334
-0.4152166545391083
-0.3557949364185333
-0.2912690341472626
-0.2226473093032837
-0.15082880854606628
-0.16375043988227844
-0.08205065876245499
0.001401953399181366
0.08582790940999985
0.17032799124717712
0.25382184982299805
0.33499875664711
0.4123067557811737
0.4840020537376404
0.5482507944107056
0.6032752394676208
0.6475250720977783
0.6798207759857178
0.6994544267654419
0.7062172293663025
0.7003626227378845
0.6825167536735535
0.6535753011703491
0.6145905256271362
0.5666842460632324
0.5109815001487732
0.4485692083835602
0.38047364354133606
0.3076428771018982
0.23095116019248962
0.1511991024017334
0.06913838535547256
-0.014488466084003448
-0.09887322038412094
-0.18305853009223938
-0.26585739850997925
-0.3458150625228882
-0.4212277829647064
-0.49025753140449524
-0.5510982275009155
-0.6021597981452942
-0.6422268748283386
-0.6705452799797058
-0.6868276596069336
-0.6911958456039429
-0.6840726733207703
-0.666072428226471
-0.6378925442695618
-0.6002400517463684
-0.553796112537384
-0.49920615553855896
-0.4371165931224823
-0.36821305751800537
-0.2932741940021515
-0.21320918202400208
-0.12908366322517395
-0.04211989790201187
0.0463060662150383
0.13468387722969055
0.22140195965766907
0.3048023581504822
0.3832496106624603
0.45521557331085205
0.5193555951118469
0.5745564103126526
0.6199553608894348
0.6549245119094849
0.6790350079536438
0.6920127868652344
0.6937169432640076
0.6841304898262024
0.6633753180503845
0.6317532658576965
0.5897812247276306
0.5382307767868042
0.4781254529953003
0.4107038080692291
0.33733728528022766
0.2594384253025055
0.17835959792137146
0.09533711522817612
0.011471815407276154
-0.0722527727484703
-0.1549307405948639
-0.23567646741867065
-0.31357866525650024
-0.38766202330589294
-0.45686522126197815
-0.5200392603874207
-0.5759749412536621
-0.6234415173530579
-0.6612525582313538
-0.6883428692817688
-0.7038485407829285
-0.7071812748908997
-0.6980854272842407
-0.6766678094863892
-0.6434037089347839
-0.599104106426239
-0.5448558330535889
-0.4819451868534088
-0.41176626086235046
-0.3357381522655487
-0.25522592663764954
-0.17148876190185547
-0.1918632686138153
-0.09971741586923599
-0.004819639027118683
0.091762475669384
0.18875005841255188
0.2846144139766693
0.3775615394115448
0.46558377146720886
0.5465506911277771
0.6183722615242004
0.6791641116142273
0.7274149060249329
0.7621071934700012
0.782757580280304
0.7893987894058228
0.7824925184249878
0.7628155946731567
0.7313300967216492
0.689079999923706
0.637106716632843
0.5764020085334778
0.5078930258750916
0.43244901299476624
0.3509064316749573
0.2641069293022156
0.17293891310691833
0.07838394492864609
-0.018428407609462738
-0.11617238074541092
-0.21329012513160706
-0.3079896867275238
-0.3982986807823181
-0.4821722209453583
-0.5576521754264832
-0.6230362057685852
-0.6770107746124268
-0.7187294960021973
-0.7478066086769104
-0.7642585635185242
-0.7683968544006348
-0.7607120275497437
-0.7417656779289246
-0.7121061682701111
-0.6722263097763062
-0.6225560307502747
-0.563493549823761
-0.49547842144966125
-0.4190739095211029
-0.33504989743232727
-0.24444302916526794
-0.14858651161193848
-0.04909347742795944
0.05218677967786789
0.15324681997299194
0.25201740860939026
0.34647247195243835
0.4347309172153473
0.5151428580284119
0.5863400101661682
0.6472464799880981
0.6970639228820801
0.7352271676063538
0.7613604664802551
0.7752370834350586
0.7767595052719116
0.7659457325935364
0.7429505586624146
0.7080877423286438
0.6618666648864746
0.6050272583961487
0.53855961561203
0.4636918604373932
0.3818437159061432
0.2945444881916046
0.2033323347568512
0.10967569798231125
0.014918409287929535
-0.07972852140665054
-0.1731545627117157
-0.2643055021762848
-0.3521224558353424
-0.43550336360931396