# vtk DataFile Version 3.0
2D PINN Solution
ASCII
DATASET STRUCTURED_GRID
DIMENSIONS 100 100 1
POINTS 10000 float
-1.0 -1.0 0.0
-0.9797979797979798 -1.0 0.0
-0.9595959595959596 -1.0 0.0
-0.9393939393939394 -1.0 0.0
-0.9191919191919192 -1.0 0.0
-0.898989898989899 -1.0 0.0
-0.8787878787878788 -1.0 0.0
-0.8585858585858586 -1.0 0.0
-0.8383838383838383 -1.0 0.0
-0.8181818181818181 -1.0 0.0
-0.797979797979798 -1.0 0.0
-0.7777777777777778 -1.0 0.0
-0.7575757575757576 -1.0 0.0
-0.7373737373737373 -1.0 0.0
-0.7171717171717171 -1.0 0.0
-0.696969696969697 -1.0 0.0
-0.6767676767676767 -1.0 0.0
-0.6565656565656566 -1.0 0.0
-0.6363636363636364 -1.0 0.0
-0.6161616161616161 -1.0 0.0
-0.5959595959595959 -1.0 0.0
-0.5757575757575757 -1.0 0.0
-0.5555555555555556 -1.0 0.0
-0.5353535353535352 -1.0 0.0
-0.5151515151515151 -1.0 0.0
-0.4949494949494949 -1.0 0.0
-0.4747474747474747 -1.0 0.0
-0.4545454545454545 -1.0 0.0
-0.43434343434343425 -1.0 0.0
-0.41414141414141414 -1.0 0.0
-0.3939393939393939 -1.0 0.0
-0.3737373737373737 -1.0 0.0
-0.3535353535353535 -1.0 0.0
-0.33333333333333326 -1.0 0.0
-0.31313131313131304 -1.0 0.0
-0.2929292929292928 -1.0 0.0
-0.2727272727272727 -1.0 0.0
-0.2525252525252525 -1.0 0.0
-0.23232323232323226 -1.0 0.0
-0.21212121212121204 -1.0 0.0
-0.19191919191919182 -1.0 0.0
-0.1717171717171716 -1.0 0.0
-0.1515151515151515 -1.0 0.0
-0.13131313131313127 -1.0 0.0
-0.11111111111111105 -1.0 0.0
-0.09090909090909083 -1.0 0.0
-0.07070707070707061 -1.0 0.0
-0.050505050505050386 -1.0 0.0
-0.030303030303030276 -1.0 0.0
-0.010101010101010055 -1.0 0.0
0.010101010101010166 -1.0 0.0
0.030303030303030498 -1.0 0.0
0.05050505050505061 -1.0 0.0
0.07070707070707072 -1.0 0.0
0.09090909090909105 -1.0 0.0
0.11111111111111116 -1.0 0.0
0.1313131313131315 -1.0 0.0
0.1515151515151516 -1.0 0.0
0.1717171717171717 -1.0 0.0
0.19191919191919204 -1.0 0.0
0.21212121212121215 -1.0 0.0
0.2323232323232325 -1.0 0.0
0.2525252525252526 -1.0 0.0
0.27272727272727293 -1.0 0.0
0.29292929292929304 -1.0 0.0
0.31313131313131315 -1.0 0.0
0.3333333333333335 -1.0 0.0
0.3535353535353536 -1.0 0.0
0.3737373737373739 -1.0 0.0
0.39393939393939403 -1.0 0.0
0.41414141414141437 -1.0 0.0
0.4343434343434345 -1.0 0.0
0.4545454545454546 -1.0 0.0
0.4747474747474749 -1.0 0.0
0.49494949494949503 -1.0 0.0
0.5151515151515154 -1.0 0.0
0.5353535353535355 -1.0 0.0
0.5555555555555556 -1.0 0.0
0.5757575757575759 -1.0 0.0
0.595959595959596 -1.0 0.0
0.6161616161616164 -1.0 0.0
0.6363636363636365 -1.0 0.0
0.6565656565656568 -1.0 0.0
0.6767676767676769 -1.0 0.0
0.696969696969697 -1.0 0.0
0.7171717171717173 -1.0 0.0
0.7373737373737375 -1.0 0.0
0.7575757575757578 -1.0 0.0
0.7777777777777779 -1.0 0.0
0.7979797979797982 -1.0 0.0
0.8181818181818183 -1.0 0.0
0.8383838383838385 -1.0 0.0
0.8585858585858588 -1.0 0.0
0.8787878787878789 -1.0 0.0
0.8989898989898992 -1.0 0.0
0.9191919191919193 -1.0 0.0
0.9393939393939394 -1.0 0.0
0.9595959595959598 -1.0 0.0
0.9797979797979799 -1.0 0.0
1.0 -1.0 0.0
-1.0 -0.9797979797979798 0.0
-0.9797979797979798 -0.9797979797979798 0.0
-0.9595959595959596 -0.9797979797979798 0.0
-0.9393939393939394 -0.9797979797979798 0.0
-0.9191919191919192 -0.9797979797979798 0.0
-0.898989898989899 -0.9797979797979798 0.0
-0.8787878787878788 -0.9797979797979798 0.0
-0.8585858585858586 -0.9797979797979798 0.0
-0.8383838383838383 -0.9797979797979798 0.0
-0.8181818181818181 -0.9797979797979798 0.0
-0.797979797979798 -0.9797979797979798 0.0
-0.7777777777777778 -0.9797979797979798 0.0
-0.7575757575757576 -0.9797979797979798 0.0
-0.7373737373737373 -0.9797979797979798 0.0
-0.7171717171717171 -0.9797979797979798 0.0
-0.696969696969697 -0.9797979797979798 0.0
-0.6767676767676767 -0.9797979797979798 0.0
-0.6565656565656566 -0.9797979797979798 0.0
-0.6363636363636364 -0.9797979797979798 0.0
-0.6161616161616161 -0.9797979797979798 0.0
-0.5959595959595959 -0.9797979797979798 0.0
-0.5757575757575757 -0.9797979797979798 0.0
-0.5555555555555556 -0.9797979797979798 0.0
-0.5353535353535352 -0.9797979797979798 0.0
-0.5151515151515151 -0.9797979797979798 0.0
-0.4949494949494949 -0.9797979797979798 0.0
-0.4747474747474747 -0.9797979797979798 0.0
-0.4545454545454545 -0.9797979797979798 0.0
-0.43434343434343425 -0.9797979797979798 0.0
-0.41414141414141414 -0.9797979797979798 0.0
-0.3939393939393939 -0.9797979797979798 0.0
-0.3737373737373737 -0.9797979797979798 0.0
-0.3535353535353535 -0.9797979797979798 0.0
-0.33333333333333326 -0.9797979797979798 0.0
-0.31313131313131304 -0.9797979797979798 0.0
-0.2929292929292928 -0.9797979797979798 0.0
-0.2727272727272727 -0.9797979797979798 0.0
-0.2525252525252525 -0.9797979797979798 0.0
-0.23232323232323226 -0.9797979797979798 0.0
-0.21212121212121204 -0.9797979797979798 0.0
-0.19191919191919182 -0.9797979797979798 0.0
-0.1717171717171716 -0.9797979797979798 0.0
-0.1515151515151515 -0.9797979797979798 0.0
-0.13131313131313127 -0.9797979797979798 0.0
-0.11111111111111105 -0.9797979797979798 0.0
-0.09090909090909083 -0.9797979797979798 0.0
-0.07070707070707061 -0.9797979797979798 0.0
-0.050505050505050386 -0.9797979797979798 0.0
-0.030303030303030276 -0.9797979797979798 0.0
-0.010101010101010055 -0.9797979797979798 0.0
0.010101010101010166 -0.9797979797979798 0.0
0.030303030303030498 -0.9797979797979798 0.0
0.05050505050505061 -0.9797979797979798 0.0
0.07070707070707072 -0.9797979797979798 0.0
0.09090909090909105 -0.9797979797979798 0.0
0.11111111111111116 -0.9797979797979798 0.0
0.1313131313131315 -0.9797979797979798 0.0
0.1515151515151516 -0.9797979797979798 0.0
0.1717171717171717 -0.9797979797979798 0.0
0.19191919191919204 -0.9797979797979798 0.0
0.21212121212121215 -0.9797979797979798 0.0
0.2323232323232325 -0.9797979797979798 0.0
0.2525252525252526 -0.9797979797979798 0.0
0.27272727272727293 -0.9797979797979798 0.0
0.29292929292929304 -0.9797979797979798 0.0
0.31313131313131315 -0.9797979797979798 0.0
0.3333333333333335 -0.9797979797979798 0.0
0.3535353535353536 -0.9797979797979798 0.0
0.3737373737373739 -0.9797979797979798 0.0
0.39393939393939403 -0.9797979797979798 0.0
0.41414141414141437 -0.9797979797979798 0.0
0.4343434343434345 -0.9797979797979798 0.0
0.4545454545454546 -0.9797979797979798 0.0
0.4747474747474749 -0.9797979797979798 0.0
0.49494949494949503 -0.9797979797979798 0.0
0.5151515151515154 -0.9797979797979798 0.0
0.5353535353535355 -0.9797979797979798 0.0
0.5555555555555556 -0.9797979797979798 0.0
0.5757575757575759 -0.9797979797979798 0.0
0.595959595959596 -0.9797979797979798 0.0
0.6161616161616164 -0.9797979797979798 0.0
0.6363636363636365 -0.9797979797979798 0.0
0.6565656565656568 -0.9797979797979798 0.0
0.6767676767676769 -0.9797979797979798 0.0
0.696969696969697 -0.9797979797979798 0.0
0.7171717171717173 -0.9797979797979798 0.0
0.7373737373737375 -0.9797979797979798 0.0
0.7575757575757578 -0.9797979797979798 0.0
0.7777777777777779 -0.9797979797979798 0.0
0.7979797979797982 -0.9797979797979798 0.0
0.8181818181818183 -0.9797979797979798 0.0
0.8383838383838385 -0.9797979797979798 0.0
0.8585858585858588 -0.9797979797979798 0.0
0.8787878787878789 -0.9797979797979798 0.0
0.8989898989898992 -0.9797979797979798 0.0
0.9191919191919193 -0.9797979797979798 0.0
0.9393939393939394 -0.9797979797979798 0.0
0.9595959595959598 -0.9797979797979798 0.0
0.9797979797979799 -0.9797979797979798 0.0
1.0 -0.9797979797979798 0.0
-1.0 -0.9595959595959596 0.0
-0.9797979797979798 -0.9595959595959596 0.0
-0.9595959595959596 -0.9595959595959596 0.0
-0.9393939393939394 -0.9595959595959596 0.0
-0.9191919191919192 -0.9595959595959596 0.0
-0.898989898989899 -0.9595959595959596 0.0
-0.8787878787878788 -0.9595959595959596 0.0
-0.8585858585858586 -0.9595959595959596 0.0
-0.8383838383838383 -0.9595959595959596 0.0
-0.8181818181818181 -0.9595959595959596 0.0
-0.797979797979798 -0.9595959595959596 0.0
-0.7777777777777778 -0.9595959595959596 0.0
-0.7575757575757576 -0.9595959595959596 0.0
-0.7373737373737373 -0.9595959595959596 0.0
-0.7171717171717171 -0.9595959595959596 0.0
-0.696969696969697 -0.9595959595959596 0.0
-0.6767676767676767 -0.9595959595959596 0.0
-0.6565656565656566 -0.9595959595959596 0.0
-0.6363636363636364 -0.9595959595959596 0.0
-0.6161616161616161 -0.9595959595959596 0.0
-0.5959595959595959 -0.9595959595959596 0.0
-0.5757575757575757 -0.9595959595959596 0.0
-0.5555555555555556 -0.9595959595959596 0.0
-0.5353535353535352 -0.9595959595959596 0.0
-0.5151515151515151 -0.9595959595959596 0.0
-0.4949494949494949 -0.9595959595959596 0.0
-0.4747474747474747 -0.9595959595959596 0.0
-0.4545454545454545 -0.9595959595959596 0.0
-0.43434343434343425 -0.9595959595959596 0.0
-0.41414141414141414 -0.9595959595959596 0.0
-0.3939393939393939 -0.9595959595959596 0.0
-0.3737373737373737 -0.9595959595959596 0.0
-0.3535353535353535 -0.9595959595959596 0.0
-0.33333333333333326 -0.9595959595959596 0.0
-0.31313131313131304 -0.9595959595959596 0.0
-0.2929292929292928 -0.9595959595959596 0.0
-0.2727272727272727 -0.9595959595959596 0.0
-0.2525252525252525 -0.9595959595959596 0.0
-0.23232323232323226 -0.9595959595959596 0.0
-0.21212121212121204 -0.9595959595959596 0.0
-0.19191919191919182 -0.9595959595959596 0.0
-0.1717171717171716 -0.9595959595959596 0.0
-0.1515151515151515 -0.9595959595959596 0.0
-0.13131313131313127 -0.9595959595959596 0.0
-0.11111111111111105 -0.9595959595959596 0.0
-0.09090909090909083 -0.9595959595959596 0.0
-0.07070707070707061 -0.9595959595959596 0.0
-0.050505050505050386 -0.9595959595959596 0.0
-0.030303030303030276 -0.9595959595959596 0.0
-0.010101010101010055 -0.9595959595959596 0.0
0.010101010101010166 -0.9595959595959596 0.0
0.030303030303030498 -0.9595959595959596 0.0
0.05050505050505061 -0.9595959595959596 0.0
0.07070707070707072 -0.9595959595959596 0.0
0.09090909090909105 -0.9595959595959596 0.0
0.11111111111111116 -0.9595959595959596 0.0
0.1313131313131315 -0.9595959595959596 0.0
0.1515151515151516 -0.9595959595959596 0.0
0.1717171717171717 -0.9595959595959596 0.0
0.19191919191919204 -0.9595959595959596 0.0
0.21212121212121215 -0.9595959595959596 0.0
[...]
POINT_DATA 10000
SCALARS u float 1
LOOKUP_TABLE default
-0.03430498391389847
0.008428119122982025
0.0476873442530632
0.08314592391252518
0.11453504115343094
0.14164602756500244
0.1643209457397461
0.18245959281921387
0.19601359963417053
0.20499256253242493
0.2094610035419464
0.2095407247543335
0.2054136097431183
0.1973254680633545
0.1855798363685608
0.17054685950279236
0.1526535451412201
0.1323869228363037
0.11028293520212173
0.086916483938694
0.06288907676935196
0.03880485147237778
0.015251360833644867
-0.007230885326862335
-0.028176553547382355
-0.04721466451883316
-0.06408876925706863
-0.07866714149713516
-0.0909353569149971
-0.10098598152399063
-0.1089942529797554
-0.1151888445019722
-0.11981780081987381
-0.12311292439699173
-0.12526562809944153
-0.12640082836151123
-0.12657040357589722
-0.125747948884964
-0.12384306639432907
-0.1207147017121315
-0.11619379371404648
-0.110109843313694
-0.10230910032987595
-0.09268037229776382
-0.081163190305233
-0.06776788085699081
-0.05257337540388107
-0.03573667258024216
-0.017487220466136932
0.0018750205636024475
0.021984152495861053
0.04242108017206192
0.06271883100271225
0.08237691968679428
0.1008751168847084
0.11769459396600723
0.1323353350162506
0.14434820413589478
0.1533568948507309
0.1590971052646637
0.16143016517162323
0.16036930680274963
0.1560676097869873
0.14881210029125214
0.13898465037345886
0.12702429294586182
0.11338207870721817
0.09848472476005554
0.08270701766014099
0.06635869294404984
0.04968378692865372
0.032865747809410095
0.01604388654232025
-0.0006736442446708679
-0.017187796533107758
-0.03339110314846039
-0.049159564077854156
-0.0643385723233223
-0.07874203473329544
-0.09215154498815536
-0.10432863980531693
-0.1150265708565712
-0.12400541454553604
-0.13105279207229614
-0.13599911332130432
-0.13872262835502625
-0.13916322588920593
-0.13731473684310913
-0.13321447372436523
-0.12693461775779724
-0.11855930835008621
-0.10817468911409378
-0.09584803134202957
-0.08161572366952896
-0.06548010557889938
-0.047403380274772644
-0.027306772768497467
-0.005081631243228912
0.01940024644136429
0.046275682747364044
0.014987491071224213
0.06166272610425949
0.1047879084944725
0.1439584195613861
0.17883077263832092
0.2091279923915863
0.23462757468223572
0.25516650080680847
0.2706388533115387
0.28099524974823
0.286245733499527
0.2864598333835602
0.2817704677581787
0.27237096428871155
0.25852420926094055
0.24055886268615723
0.2188662588596344
0.1939033567905426
0.16618406772613525
0.13626772165298462
0.10474897176027298
0.07223960012197495
0.03934574872255325
0.0066445693373680115
-0.025335319340229034
-0.05613420158624649
-0.08536969870328903
-0.11273325234651566
-0.13799038529396057
-0.1609525978565216
-0.1814626157283783
-0.1993715465068817
-0.2145262360572815
-0.22675928473472595
-0.23589575290679932
-0.24176669120788574
-0.24422338604927063
-0.24316081404685974
-0.2385302484035492
-0.2303454577922821
-0.2186887264251709
-0.20370081067085266
-0.18557429313659668
-0.1645422875881195
-0.14087170362472534
-0.11485800892114639
-0.08682424575090408
-0.05712095648050308
-0.026133157312870026
0.0057172104716300964
0.037967242300510406
0.0701097920536995
0.10159303992986679
0.13182714581489563
0.16019406914710999
0.1860608160495758
0.20880669355392456
0.22784534096717834
0.24266767501831055
0.25287026166915894
0.25819188356399536
0.25853943824768066
0.2539970874786377
0.2448195219039917
0.2314068078994751
0.2142590582370758
0.1939266324043274
0.17096245288848877
0.1458774209022522
0.11912216246128082
0.09107623249292374
0.06205734610557556
0.03234318643808365
0.002191677689552307
-0.02813117951154709
-0.05832564830780029
-0.08804366737604141
-0.11687759310007095
-0.1443609893321991
-0.16998103260993958
-0.19319695234298706
-0.21347036957740784
-0.23030483722686768
-0.24327531456947327
-0.25205957889556885
-0.2564629912376404
-0.2564253509044647
-0.2520112693309784
-0.24340417981147766
-0.2308710217475891
-0.2147308886051178
-0.1953270137310028
-0.17298978567123413
-0.148014098405838
-0.12064192444086075
-0.09104923158884048
-0.05935024470090866
-0.02559768408536911
0.010197974741458893
0.04804956167936325
0.06199987977743149
0.11288785189390182
0.16022023558616638
0.20351159572601318
0.24233677983283997
0.27634114027023315
0.3052295744419098
0.32876861095428467
0.3467847406864166
0.3591611981391907
0.36584189534187317
0.36683008074760437
0.36219221353530884
0.35206037759780884
0.33663231134414673
0.31617459654808044
0.2910255491733551
0.2615905702114105
0.22834017872810364
0.1918007731437683
0.15254876017570496
0.11118992418050766
0.06834816187620163
0.02464257925748825
-0.019322268664836884
-0.06296996027231216
-0.10575104504823685
-0.14713630080223083
-0.1866011619567871
-0.22361025214195251
-0.2576018273830414
-0.2879873812198639
-0.3141607642173767
-0.3355289399623871
-0.3515520393848419
-0.36178457736968994
-0.36592867970466614
-0.36385464668273926
-0.35561826825141907
-0.34145334362983704
-0.3217432498931885
-0.2969852685928345
-0.2677440345287323
-0.23461586236953735
-0.19819775223731995
-0.15906792879104614
-0.11778124421834946
-0.07487375289201736
-0.030872322618961334
0.013687066733837128
0.058246590197086334
0.10221049934625626
0.14494410157203674
0.1857626736164093
0.22394749522209167
0.25876033306121826
0.28946399688720703
0.31536316871643066
0.33583196997642517
0.3503606617450714
0.35858461260795593
0.3603222966194153
0.3555827736854553
0.34457364678382874
0.3276793658733368
0.3054281175136566
0.2784355580806732
0.2473556399345398
0.2128283679485321
0.17544570565223694
0.13573631644248962
0.09417513757944107
0.05119725316762924
0.00723373144865036
-0.03725641220808029
-0.08176315575838089
-0.12569516897201538
-0.16838425397872925
-0.209078848361969
-0.2469751536846161
-0.2812437117099762
-0.3110785484313965
-0.3357432782649994
-0.35462191700935364
-0.36726051568984985
-0.3733927011489868
-0.3729531168937683
-0.3660755753517151
-0.35305872559547424
-0.3343452513217926
-0.3104640543460846
-0.2820000946521759
-0.24953606724739075
-0.2136194407939911
-0.17474046349525452
-0.13330674171447754
-0.08963965624570847
-0.04398321360349655
0.0034840628504753113
0.05262378603219986
0.10566841810941696
0.16093119978904724
0.21272000670433044
0.2604553997516632
0.3036291301250458
0.3417991101741791
0.3745920956134796
0.40169602632522583
0.42285841703414917
0.43788692355155945
0.4466494023799896
0.44906842708587646
0.4451287090778351
0.4348785877227783
0.4184321165084839
0.3959730565547943
0.3677561283111572
0.33411142230033875
0.295440673828125
0.2522197365760803
0.2049860656261444
0.1543397307395935
0.10092506557703018
0.04542764276266098
-0.011434204876422882
-0.06890992075204849
-0.12621113657951355
-0.182498961687088
-0.23687836527824402
-0.28838518261909485
-0.3360016345977783
-0.3786810636520386
-0.4153905212879181
-0.4451771080493927
-0.4672299921512604
-0.48094502091407776
-0.48597022891044617
-0.4822327196598053
-0.46993598341941833
-0.44953545928001404
-0.4216894507408142
-0.3872034549713135
-0.34696561098098755
-0.30188584327697754
-0.2528526484966278
-0.2007022202014923
-0.1462109386920929
-0.09009919315576553
-0.033046819269657135
0.024280063807964325
0.08120616525411606
0.137027770280838
0.19099697470664978
0.24232283234596252
0.29017478227615356
0.33370912075042725
0.37208935618400574
0.4045271575450897
0.4303210377693176
0.4488859176635742
0.45979684591293335
0.4628051221370697
0.4578603208065033
0.44511446356773376
0.42491069436073303
0.3977632224559784
0.3643086850643158
0.3252624571323395
0.2813667356967926
0.23334822058677673
0.18189826607704163
0.1276676207780838
0.07128852605819702
0.013399757444858551
-0.04531464725732803
-0.10410016030073166
-0.16210979223251343
-0.21840214729309082
-0.27195778489112854
-0.321705162525177
-0.36656713485717773
-0.40551620721817017
-0.4376300871372223
-0.4621477425098419
-0.47851184010505676
-0.48640134930610657
-0.48574331402778625
-0.4767056405544281
-0.45966967940330505
-0.4351997971534729
-0.4039907157421112
-0.3668159544467926
-0.3244781196117401
-0.27776429057121277
-0.227402001619339
-0.17404377460479736
-0.1182451918721199
-0.06047018617391586
-0.0011053383350372314
0.059522949159145355
0.14500099420547485
0.20468419790267944
0.2610591948032379
0.3134557604789734
0.36127281188964844
0.40398046374320984
0.44111451506614685
0.4722788631916046
0.49713629484176636
0.5154096484184265
0.5268742442131042
0.531363308429718
0.5287627577781677
0.5190193057060242
0.5021357536315918
0.478187620639801
0.44731757044792175
0.4097481071949005
0.3657875955104828
0.3158320486545563
0.2603716552257538
0.19999566674232483
0.13539409637451172
0.06735926121473312
-0.003207094967365265
-0.07528651505708694
-0.14774522185325623
-0.21932479739189148
-0.2886587381362915
-0.3542969524860382
-0.4147530794143677
-0.4685725271701813
-0.5144107341766357
-0.5511083602905273
-0.5777627825737
-0.5937724113464355
-0.5988598465919495
-0.5930755734443665
-0.5767738819122314
-0.5505768060684204
-0.5153228640556335
-0.4720099866390228
-0.4217298924922943
-0.3656086027622223
-0.3047543466091156
-0.24022290110588074
-0.17299965023994446
-0.10400103777647018
-0.034090690314769745
0.035895295441150665
0.10512039810419083
0.17272737622261047
0.23782098293304443
0.29947328567504883
0.3567311465740204
0.4086436331272125
0.4542933404445648
0.4928314685821533
0.5235128998756409
0.5457287430763245
0.5590245723724365
0.5631234645843506
0.5579328536987305
0.5435500741004944
0.5202603936195374
0.488523930311203
0.4489516317844391
0.4022738039493561
0.3492964804172516
0.2908637225627899
0.22783318161964417
0.1610601246356964
0.09141064435243607
0.01978115737438202
-0.052877433598041534
-0.12553292512893677
-0.19706442952156067
-0.26626697182655334
-0.3318755030632019
-0.39260202646255493
-0.4471852481365204
-0.4944445788860321
-0.5333436131477356
-0.5630332827568054
-0.5828933119773865
-0.5925645232200623
-0.5919548869132996
-0.5812323093414307
-0.5608093738555908
-0.5313062071800232
-0.4935092031955719
-0.44832125306129456
-0.39671170711517334
-0.33966493606567383
-0.27814069390296936
-0.21303513646125793
-0.14516249299049377
-0.0752447322010994
-0.003920622169971466
0.06824501603841782
0.1791350543498993
0.24314680695533752
0.30410948395729065
0.36125698685646057
0.4138934314250946
0.46139413118362427
0.5032011270523071
0.5388275384902954
0.5678412318229675
0.5898707509040833
0.6045930981636047
0.6117350459098816
0.6110695600509644
0.6024195551872253
0.5856568217277527
0.5607181787490845
0.52760249376297
0.4863946735858917
0.4372738003730774
0.3805374205112457
0.3166167736053467
0.24610215425491333
0.169767826795578
0.08858316391706467
0.003736041486263275
-0.08336742967367172
-0.17111274600028992
-0.257709264755249
-0.3412448465824127
-0.4197705090045929
-0.49139538407325745
-0.5543942451477051
-0.6072904467582703
-0.648934006690979
-0.6785252690315247
-0.6956220269203186
-0.7001230716705322
-0.6922338604927063
-0.67242830991745
-0.6414080858230591
-0.6000668406486511
-0.5494483709335327
-0.4907032549381256
-0.4250459372997284
-0.35371094942092896
-0.2779163122177124
-0.19883772730827332
-0.11760491877794266
-0.035302065312862396
0.047009967267513275
0.12827616930007935
0.20742806792259216
0.28337904810905457
0.3550335466861725
0.42130282521247864
0.4811338782310486
0.5335485339164734
0.577671468257904
0.6127544641494751
0.6381965279579163
0.6535576581954956
0.6585560441017151
0.6530762910842896
0.637166440486908
0.6110425591468811
0.5750879049301147
0.5298482775688171
0.47602328658103943
0.41444408893585205
0.3460482060909271
0.2718578577041626
0.19295603036880493
0.1104855015873909
0.025643683969974518
-0.06030301749706268
-0.14601969718933105
-0.23010501265525818
-0.31111130118370056
-0.38757383823394775
-0.4580516517162323
-0.5211753845214844
-0.5756962895393372
-0.6205289959907532
-0.654798150062561
-0.6778604388237
-0.6893290877342224
-0.689081072807312
-0.677253246307373
-0.6542283296585083
-0.6206145286560059
-0.5772132277488708
-0.5249825119972229
-0.46499237418174744
-0.39837849140167236
-0.32630231976509094
-0.2499040961265564
-0.17027264833450317
-0.08842471987009048
-0.005296297371387482
0.07825823873281479
0.20736971497535706
0.27548032999038696
0.3408887982368469
0.40273746848106384
0.4602336883544922
0.5126518607139587
0.5593370795249939
0.5997007489204407
0.633213222026825
0.6593988537788391
0.677825927734375
0.6881034970283508
0.6898770928382874
0.682826578617096
0.6666705012321472
0.6411760449409485
0.606173038482666
0.5615734457969666
0.5074028968811035
0.44384294748306274
0.37126678228378296
0.29029789566993713
0.20185384154319763
0.10718240588903427
0.007884733378887177
-0.09410551935434341
-0.1965692937374115
-0.2971014082431793
-0.393233984708786
-0.48259469866752625
-0.5630359053611755
-0.6327618360519409
-0.6903874278068542
-0.734963059425354
-0.7659489512443542
-0.7831635475158691
-0.7867199182510376
-0.7769681811332703
-0.7544471025466919
-0.7198539972305298
-0.6740233302116394
-0.6179168224334717
-0.5526124238967896
-0.4792884886264801
-0.39920103549957275
-0.31365731358528137
-0.22399184107780457
-0.13154643774032593
-0.03765984624624252
0.056330807507038116
0.14909255504608154
0.2392910122871399
0.32560524344444275
0.4067431688308716
0.48147234320640564
0.548652172088623
0.6072626709938049
0.6564294695854187
0.6954324841499329
0.7237101197242737
0.7408528923988342
0.7465961575508118
0.740809440612793
0.723497211933136
0.6948046684265137
0.6550247669219971
0.6046194434165955
0.5442306399345398
0.4746842682361603
0.39699506759643555
0.3123437762260437
0.22205692529678345
0.1275799572467804
0.030454270541667938
-0.06771541386842728
-0.16527634859085083
-0.26055917143821716
-0.3519129753112793
-0.43773123621940613
-0.5164948105812073
-0.5868014097213745
-0.6474049687385559
-0.6972381472587585
-0.7354409098625183
-0.7613754868507385
-0.77463698387146
-0.7750605940818787
-0.7627193927764893
-0.7379230856895447
-0.701205849647522
-0.6533141732215881
-0.5951876044273376
-0.5279300808906555
-0.45277342200279236
-0.3710406422615051
-0.2840999662876129
-0.1933213770389557
-0.10004288703203201
-0.005537532269954681
0.08900073915719986
0.22919851541519165
0.3010367751121521
0.37060847878456116
0.436962366104126
0.4992089569568634
0.5565214157104492
0.6081424355506897
0.6533765196800232
0.691587507724762
0.7221861481666565
0.7446244359016418
0.7583805918693542
0.7629565596580505
0.7578761577606201
0.7426826357841492
0.7169538736343384
0.680319607257843
0.6325004696846008
0.5733540654182434
0.502938985824585
0.42159783840179443
0.3300407826900482
0.2294202744960785
0.12138567119836807
0.008083932101726532
-0.1078956350684166
-0.22365528345108032
-0.3361763656139374
-0.44252774119377136
-0.5400767922401428
-0.6266351938247681
-0.7005528807640076
-0.7607203722000122
-0.806522786617279
-0.8377483487129211
-0.8544923067092896
-0.857060968875885
-0.8459028005599976
-0.8215674161911011
-0.7846783995628357
-0.7359406352043152
-0.6761532425880432
-0.6062318086624146
-0.5272213816642761
-0.4403081238269806
-0.3468150496482849
-0.2481798231601715
-0.14593786001205444
-0.04169050604104996
0.06292160600423813
0.16624334454536438
0.266637921333313
0.3625156581401825
0.45237770676612854
0.5348453521728516
0.6087000966072083
0.6728988885879517
0.7265835404396057
0.7690808773040771
0.7998761534690857
0.818597137928009
0.8249944448471069
0.8189265131950378
0.8003536462783813
0.7693512439727783
0.7261293530464172
0.671066164970398
0.6047453284263611
0.5279874205589294
0.4418753981590271
0.3477478623390198
0.24717777967453003
0.1419253647327423
0.03387797623872757
-0.07501522451639175
-0.1828039288520813
-0.28759169578552246
-0.3875715434551239
-0.481063574552536
-0.5665335059165955
-0.642611563205719
-0.7081028819084167
-0.7619989514350891
-0.8034847974777222
-0.8319398164749146
-0.846946656703949
-0.8482904434204102
-0.8359634280204773
-0.8101686239242554
-0.7713263630867004
-0.7200765609741211
-0.6572819948196411
-0.584015429019928
-0.5015483498573303
-0.41131940484046936
-0.31489425897598267
-0.21391409635543823
-0.11004529148340225
-0.004928179085254669
0.09987290948629379
0.24432292580604553
0.3193860650062561
0.3926936686038971
0.4632090628147125
0.5299466848373413
0.5919774770736694
0.6484349370002747
0.6985135674476624
0.7414589524269104
0.7765621542930603
0.8031440377235413
0.8205446600914001
0.8281089663505554
0.8251879811286926
0.8111357092857361
0.7853226661682129
0.7471708655357361
0.6961981058120728
0.6320975422859192
0.5548385381698608
0.46478331089019775
0.3628137409687042
0.2504345178604126
0.12982222437858582
0.0037838444113731384
-0.12437912076711655
-0.25111618638038635
-0.37290677428245544
-0.48654988408088684
-0.58938068151474
-0.679391086101532
-0.7552475929260254
-0.8162176012992859
-0.8620545864105225
-0.8928530812263489
-0.9089323282241821
-0.9107296466827393
-0.8987336754798889
-0.8734501600265503
-0.8353976607322693
-0.7851202487945557
-0.7232271432876587
-0.6504340767860413
-0.5676096677780151
-0.47581323981285095
-0.3763152062892914
-0.2706017792224884
-0.1603546440601349
-0.04741080850362778
0.06629104167222977
0.17877405881881714
0.2880870997905731
0.3923724889755249
0.48992183804512024
0.5792210102081299
0.6589791178703308
0.728135347366333
0.7858533263206482
0.8314912915229797
0.8645746111869812
0.8847538828849792
0.8917816877365112
0.8854953646659851
0.8658098578453064
0.8327397704124451
0.7864275574684143
0.7271959185600281
0.6555985808372498
0.5724765062332153
0.4789981544017792
0.3766677677631378
0.2672947645187378
0.15293282270431519
0.03578173369169235
-0.08191392570734024
-0.19796055555343628
-0.3102918267250061
-0.4170115292072296
-0.5164198875427246
-0.6070173978805542
-0.6874975562095642
-0.7567451000213623
-0.8138205409049988
-0.8579587936401367
-0.8885648250579834
-0.9052048921585083
-0.9076119661331177
-0.8956933617591858
-0.8695366978645325
-0.8294300436973572
-0.7758782505989075
-0.7096272110939026
-0.6316783428192139
-0.5432879328727722
-0.44596007466316223
-0.3414132297039032
-0.23153412342071533
-0.11830336600542068
-0.003726772964000702
0.11024857312440872
0.25266239047050476
0.33032676577568054
0.4068087637424469
0.4809982478618622
0.5518155694007874
0.6182301044464111
0.6792628169059753
0.7339885830879211
0.7815291881561279
0.821043074131012
0.8517096042633057
0.8727164268493652
0.8832413554191589
0.8824511170387268
0.8695010542869568
0.8435522317886353
0.8038195967674255
0.7496408820152283
0.6805852055549622
0.5965917110443115
0.4981398284435272
0.3863985240459442
0.2633470594882965
0.13178420066833496
-0.004784129559993744
-0.14240336418151855
-0.2770153284072876
-0.40482982993125916
-0.5226255059242249
-0.6279376149177551
-0.7190962433815002
-0.7951598763465881
-0.8557737469673157
-0.900997519493103
-0.9311513304710388
-0.9466874003410339
-0.9480913281440735
-0.9358357787132263
-0.9103510975837708
-0.8720346093177795
-0.8212788105010986
-0.7585155367851257
-0.6842765808105469
-0.59925776720047
-0.5043767690658569
-0.40082457661628723
-0.2900844216346741
-0.17392706871032715
-0.054363004863262177
0.06642498821020126
0.18618428707122803
0.30269041657447815
0.4138476550579071
0.5177605748176575
0.6127912402153015
0.6975786685943604
0.7710370421409607
0.8323250412940979
0.8808096051216125
0.9160171151161194
0.9375931024551392
0.9452672600746155
0.9388390779495239
0.918178379535675
0.8832522034645081
0.8341699242591858
0.7712410092353821
0.6950473189353943
0.606504499912262
0.5069065093994141
0.3979324996471405
0.2816081941127777
0.1602221578359604
0.0362040176987648
-0.08800207823514938
-0.21005213260650635
-0.3277917504310608
-0.4392959177494049
-0.5428822040557861
-0.6371029615402222
-0.7207215428352356
-0.7926912307739258
-0.8521340489387512
-0.8983254432678223
-0.9306839108467102
-0.9487616419792175
-0.95224529504776
-0.9409610629081726
-0.9148940443992615
-0.8742033839225769
-0.8192622065544128
-0.7506893277168274
-0.6693840622901917
-0.5765535831451416
-0.4737204611301422
-0.36270880699157715
-0.24559298157691956
-0.12463127821683884
-0.0021634772419929504
0.1194935068488121
0.2543501853942871