# vtk DataFile Version 3.0
2D PINN Solution
ASCII
DATASET STRUCTURED_GRID
DIMENSIONS 100 100 1
POINTS 10000 float
-1.0 -1.0 0.0
-0.9797979797979798 -1.0 0.0
-0.9595959595959596 -1.0 0.0
-0.9393939393939394 -1.0 0.0
-0.9191919191919192 -1.0 0.0
-0.898989898989899 -1.0 0.0
-0.8787878787878788 -1.0 0.0
-0.8585858585858586 -1.0 0.0
-0.8383838383838383 -1.0 0.0
-0.8181818181818181 -1.0 0.0
-0.797979797979798 -1.0 0.0
-0.7777777777777778 -1.0 0.0
-0.7575757575757576 -1.0 0.0
-0.7373737373737373 -1.0 0.0
-0.7171717171717171 -1.0 0.0
-0.696969696969697 -1.0 0.0
-0.6767676767676767 -1.0 0.0
-0.6565656565656566 -1.0 0.0
-0.6363636363636364 -1.0 0.0
-0.6161616161616161 -1.0 0.0
-0.5959595959595959 -1.0 0.0
-0.5757575757575757 -1.0 0.0
-0.5555555555555556 -1.0 0.0
-0.5353535353535352 -1.0 0.0
-0.5151515151515151 -1.0 0.0
-0.4949494949494949 -1.0 0.0
-0.4747474747474747 -1.0 0.0
-0.4545454545454545 -1.0 0.0
-0.43434343434343425 -1.0 0.0
-0.41414141414141414 -1.0 0.0
-0.3939393939393939 -1.0 0.0
-0.3737373737373737 -1.0 0.0
-0.3535353535353535 -1.0 0.0
-0.33333333333333326 -1.0 0.0
-0.31313131313131304 -1.0 0.0
-0.2929292929292928 -1.0 0.0
-0.2727272727272727 -1.0 0.0
-0.2525252525252525 -1.0 0.0
-0.23232323232323226 -1.0 0.0
-0.21212121212121204 -1.0 0.0
-0.19191919191919182 -1.0 0.0
-0.1717171717171716 -1.0 0.0
-0.1515151515151515 -1.0 0.0
-0.13131313131313127 -1.0 0.0
-0.11111111111111105 -1.0 0.0
-0.09090909090909083 -1.0 0.0
-0.07070707070707061 -1.0 0.0
-0.050505050505050386 -1.0 0.0
-0.030303030303030276 -1.0 0.0
-0.010101010101010055 -1.0 0.0
0.010101010101010166 -1.0 0.0
0.030303030303030498 -1.0 0.0
0.05050505050505061 -1.0 0.0
0.07070707070707072 -1.0 0.0
0.09090909090909105 -1.0 0.0
0.11111111111111116 -1.0 0.0
0.1313131313131315 -1.0 0.0
0.1515151515151516 -1.0 0.0
0.1717171717171717 -1.0 0.0
0.19191919191919204 -1.0 0.0
0.21212121212121215 -1.0 0.0
0.2323232323232325 -1.0 0.0
0.2525252525252526 -1.0 0.0
0.27272727272727293 -1.0 0.0
0.29292929292929304 -1.0 0.0
0.31313131313131315 -1.0 0.0
0.3333333333333335 -1.0 0.0
0.3535353535353536 -1.0 0.0
0.3737373737373739 -1.0 0.0
0.39393939393939403 -1.0 0.0
0.41414141414141437 -1.0 0.0
0.4343434343434345 -1.0 0.0
0.4545454545454546 -1.0 0.0
0.4747474747474749 -1.0 0.0
0.49494949494949503 -1.0 0.0
0.5151515151515154 -1.0 0.0
0.5353535353535355 -1.0 0.0
0.5555555555555556 -1.0 0.0
0.5757575757575759 -1.0 0.0
0.595959595959596 -1.0 0.0
0.6161616161616164 -1.0 0.0
0.6363636363636365 -1.0 0.0
0.6565656565656568 -1.0 0.0
0.6767676767676769 -1.0 0.0
0.696969696969697 -1.0 0.0
0.7171717171717173 -1.0 0.0
0.7373737373737375 -1.0 0.0
0.7575757575757578 -1.0 0.0
0.7777777777777779 -1.0 0.0
0.7979797979797982 -1.0 0.0
0.8181818181818183 -1.0 0.0
0.8383838383838385 -1.0 0.0
0.8585858585858588 -1.0 0.0
0.8787878787878789 -1.0 0.0
0.8989898989898992 -1.0 0.0
0.9191919191919193 -1.0 0.0
0.9393939393939394 -1.0 0.0
0.9595959595959598 -1.0 0.0
0.9797979797979799 -1.0 0.0
1.0 -1.0 0.0
-1.0 -0.9797979797979798 0.0
-0.9797979797979798 -0.9797979797979798 0.0
-0.9595959595959596 -0.9797979797979798 0.0
-0.9393939393939394 -0.9797979797979798 0.0
-0.9191919191919192 -0.9797979797979798 0.0
-0.898989898989899 -0.9797979797979798 0.0
-0.8787878787878788 -0.9797979797979798 0.0
-0.8585858585858586 -0.9797979797979798 0.0
-0.8383838383838383 -0.9797979797979798 0.0
-0.8181818181818181 -0.9797979797979798 0.0
-0.797979797979798 -0.9797979797979798 0.0
-0.7777777777777778 -0.9797979797979798 0.0
-0.7575757575757576 -0.9797979797979798 0.0
-0.7373737373737373 -0.9797979797979798 0.0
-0.7171717171717171 -0.9797979797979798 0.0
-0.696969696969697 -0.9797979797979798 0.0
-0.6767676767676767 -0.9797979797979798 0.0
-0.6565656565656566 -0.9797979797979798 0.0
-0.6363636363636364 -0.9797979797979798 0.0
-0.6161616161616161 -0.9797979797979798 0.0
-0.5959595959595959 -0.9797979797979798 0.0
-0.5757575757575757 -0.9797979797979798 0.0
-0.5555555555555556 -0.9797979797979798 0.0
-0.5353535353535352 -0.9797979797979798 0.0
-0.5151515151515151 -0.9797979797979798 0.0
-0.4949494949494949 -0.9797979797979798 0.0
-0.4747474747474747 -0.9797979797979798 0.0
-0.4545454545454545 -0.9797979797979798 0.0
-0.43434343434343425 -0.9797979797979798 0.0
-0.41414141414141414 -0.9797979797979798 0.0
-0.3939393939393939 -0.9797979797979798 0.0
-0.3737373737373737 -0.9797979797979798 0.0
-0.3535353535353535 -0.9797979797979798 0.0
-0.33333333333333326 -0.9797979797979798 0.0
-0.31313131313131304 -0.9797979797979798 0.0
-0.2929292929292928 -0.9797979797979798 0.0
-0.2727272727272727 -0.9797979797979798 0.0
-0.2525252525252525 -0.9797979797979798 0.0
-0.23232323232323226 -0.9797979797979798 0.0
-0.21212121212121204 -0.9797979797979798 0.0
-0.19191919191919182 -0.9797979797979798 0.0
-0.1717171717171716 -0.9797979797979798 0.0
-0.1515151515151515 -0.9797979797979798 0.0
-0.13131313131313127 -0.9797979797979798 0.0
-0.11111111111111105 -0.9797979797979798 0.0
-0.09090909090909083 -0.9797979797979798 0.0
-0.07070707070707061 -0.9797979797979798 0.0
-0.050505050505050386 -0.9797979797979798 0.0
-0.030303030303030276 -0.9797979797979798 0.0
-0.010101010101010055 -0.9797979797979798 0.0
0.010101010101010166 -0.9797979797979798 0.0
0.030303030303030498 -0.9797979797979798 0.0
0.05050505050505061 -0.9797979797979798 0.0
0.07070707070707072 -0.9797979797979798 0.0
0.09090909090909105 -0.9797979797979798 0.0
0.11111111111111116 -0.9797979797979798 0.0
0.1313131313131315 -0.9797979797979798 0.0
0.1515151515151516 -0.9797979797979798 0.0
0.1717171717171717 -0.9797979797979798 0.0
0.19191919191919204 -0.9797979797979798 0.0
0.21212121212121215 -0.9797979797979798 0.0
0.2323232323232325 -0.9797979797979798 0.0
0.2525252525252526 -0.9797979797979798 0.0
0.27272727272727293 -0.9797979797979798 0.0
0.29292929292929304 -0.9797979797979798 0.0
0.31313131313131315 -0.9797979797979798 0.0
0.3333333333333335 -0.9797979797979798 0.0
0.3535353535353536 -0.9797979797979798 0.0
0.3737373737373739 -0.9797979797979798 0.0
0.39393939393939403 -0.9797979797979798 0.0
0.41414141414141437 -0.9797979797979798 0.0
0.4343434343434345 -0.9797979797979798 0.0
0.4545454545454546 -0.9797979797979798 0.0
0.4747474747474749 -0.9797979797979798 0.0
0.49494949494949503 -0.9797979797979798 0.0
0.5151515151515154 -0.9797979797979798 0.0
0.5353535353535355 -0.9797979797979798 0.0
0.5555555555555556 -0.9797979797979798 0.0
0.5757575757575759 -0.9797979797979798 0.0
0.595959595959596 -0.9797979797979798 0.0
0.6161616161616164 -0.9797979797979798 0.0
0.6363636363636365 -0.9797979797979798 0.0
0.6565656565656568 -0.9797979797979798 0.0
0.6767676767676769 -0.9797979797979798 0.0
0.696969696969697 -0.9797979797979798 0.0
0.7171717171717173 -0.9797979797979798 0.0
0.7373737373737375 -0.9797979797979798 0.0
0.7575757575757578 -0.9797979797979798 0.0
0.7777777777777779 -0.9797979797979798 0.0
0.7979797979797982 -0.9797979797979798 0.0
0.8181818181818183 -0.9797979797979798 0.0
0.8383838383838385 -0.9797979797979798 0.0
0.8585858585858588 -0.9797979797979798 0.0
0.8787878787878789 -0.9797979797979798 0.0
0.8989898989898992 -0.9797979797979798 0.0
0.9191919191919193 -0.9797979797979798 0.0
0.9393939393939394 -0.9797979797979798 0.0
0.9595959595959598 -0.9797979797979798 0.0
0.9797979797979799 -0.9797979797979798 0.0
1.0 -0.9797979797979798 0.0
-1.0 -0.9595959595959596 0.0
-0.9797979797979798 -0.9595959595959596 0.0
-0.9595959595959596 -0.9595959595959596 0.0
-0.9393939393939394 -0.9595959595959596 0.0
-0.9191919191919192 -0.9595959595959596 0.0
-0.898989898989899 -0.9595959595959596 0.0
-0.8787878787878788 -0.9595959595959596 0.0
-0.8585858585858586 -0.9595959595959596 0.0
-0.8383838383838383 -0.9595959595959596 0.0
-0.8181818181818181 -0.9595959595959596 0.0
-0.797979797979798 -0.9595959595959596 0.0
-0.7777777777777778 -0.9595959595959596 0.0
-0.7575757575757576 -0.9595959595959596 0.0
-0.7373737373737373 -0.9595959595959596 0.0
-0.7171717171717171 -0.9595959595959596 0.0
-0.696969696969697 -0.9595959595959596 0.0
-0.6767676767676767 -0.9595959595959596 0.0
-0.6565656565656566 -0.9595959595959596 0.0
-0.6363636363636364 -0.9595959595959596 0.0
-0.6161616161616161 -0.9595959595959596 0.0
-0.5959595959595959 -0.9595959595959596 0.0
-0.5757575757575757 -0.9595959595959596 0.0
-0.5555555555555556 -0.9595959595959596 0.0
-0.5353535353535352 -0.9595959595959596 0.0
-0.5151515151515151 -0.9595959595959596 0.0
-0.4949494949494949 -0.9595959595959596 0.0
-0.4747474747474747 -0.9595959595959596 0.0
-0.4545454545454545 -0.9595959595959596 0.0
-0.43434343434343425 -0.9595959595959596 0.0
-0.41414141414141414 -0.9595959595959596 0.0
-0.3939393939393939 -0.9595959595959596 0.0
-0.3737373737373737 -0.9595959595959596 0.0
-0.3535353535353535 -0.9595959595959596 0.0
-0.33333333333333326 -0.9595959595959596 0.0
-0.31313131313131304 -0.9595959595959596 0.0
-0.2929292929292928 -0.9595959595959596 0.0
-0.2727272727272727 -0.9595959595959596 0.0
-0.2525252525252525 -0.9595959595959596 0.0
-0.23232323232323226 -0.9595959595959596 0.0
-0.21212121212121204 -0.9595959595959596 0.0
-0.19191919191919182 -0.9595959595959596 0.0
-0.1717171717171716 -0.9595959595959596 0.0
-0.1515151515151515 -0.9595959595959596 0.0
-0.13131313131313127 -0.9595959595959596 0.0
-0.11111111111111105 -0.9595959595959596 0.0
-0.09090909090909083 -0.9595959595959596 0.0
-0.07070707070707061 -0.9595959595959596 0.0
-0.050505050505050386 -0.9595959595959596 0.0
-0.030303030303030276 -0.9595959595959596 0.0
-0.010101010101010055 -0.9595959595959596 0.0
0.010101010101010166 -0.9595959595959596 0.0
0.030303030303030498 -0.9595959595959596 0.0
0.05050505050505061 -0.9595959595959596 0.0
0.07070707070707072 -0.9595959595959596 0.0
0.09090909090909105 -0.9595959595959596 0.0
0.11111111111111116 -0.9595959595959596 0.0
0.1313131313131315 -0.9595959595959596 0.0
0.1515151515151516 -0.9595959595959596 0.0
0.1717171717171717 -0.9595959595959596 0.0
0.19191919191919204 -0.9595959595959596 0.0
0.21212121212121215 -0.9595959595959596 0.0
[...]
POINT_DATA 10000
SCALARS u float 1
LOOKUP_TABLE default
0.055520616471767426
0.028768740594387054
0.001847200095653534
-0.025368429720401764
-0.05295143276453018
-0.08086306601762772
-0.10890469700098038
-0.13667330145835876
-0.16355320811271667
-0.18873357772827148
-0.21128252148628235
-0.23025289177894592
-0.2448127567768097
-0.25436174869537354
-0.2586062252521515
-0.2575695812702179
-0.25154727697372437
-0.24101561307907104
-0.22653701901435852
-0.20867425203323364
-0.18794873356819153
-0.16483736038208008
-0.13978460431098938
-0.11322099715471268
-0.0855666771531105
-0.057215191423892975
-0.02850797027349472
0.0002765581011772156
0.028927676379680634
0.05728515237569809
0.08521001785993576
0.11254017800092697
0.13904926180839539
0.16441267728805542
0.1881851851940155
0.20980137586593628
0.22860562801361084
0.24390146136283875
0.25501132011413574
0.2613520920276642
0.26249364018440247
0.25820255279541016
0.24847230315208435
0.23352739214897156
0.21381056308746338
0.18995654582977295
0.16274213790893555
0.13303238153457642
0.10171107202768326
0.06961042433977127
0.037451110780239105
0.0058066025376319885
-0.02491726726293564
-0.05445937067270279
-0.08267190307378769
-0.10946422070264816
-0.13475602865219116
-0.15842550992965698
-0.18027454614639282
-0.19999811053276062
-0.21717092394828796
-0.23125645518302917
-0.24166148900985718
-0.2478308379650116
-0.24936535954475403
-0.2461203634738922
-0.2382442057132721
-0.22614997625350952
-0.210432231426239
-0.1917637586593628
-0.1708012819290161
-0.14810842275619507
-0.12410105019807816
-0.09903053194284439
-0.07298631221055984
-0.045924268662929535
-0.01773615926504135
0.0116838738322258
0.042343176901340485
0.07406792789697647
0.10643068701028824
0.1387176513671875
0.1699410080909729
0.19889622926712036
0.22427064180374146
0.24478784203529358
0.2593560516834259
0.2672092914581299
0.2680126428604126
0.2619100511074066
0.2495402693748474
0.23197680711746216
0.21065735816955566
0.18727105855941772
0.16364523768424988
0.1416173279285431
0.12293907254934311
0.10916628688573837
0.10158871859312057
0.10116096585988998
0.02991708368062973
0.01682981103658676
0.003361634910106659
-0.010476090013980865
-0.024617530405521393
-0.038934506475925446
-0.05322758108377457
-0.06722325831651688
-0.08057800680398941
-0.09290117770433426
-0.1037961021065712
-0.11291152983903885
-0.11997843533754349
-0.12483517080545425
-0.12741491198539734
-0.12772181630134583
-0.1257914900779724
-0.12167618423700333
-0.11543702334165573
-0.1071721687912941
-0.09703344851732254
-0.08526328951120377
-0.07220099121332169
-0.058259136974811554
-0.0438789501786232
-0.029457665979862213
-0.015295438468456268
-0.0015557929873466492
0.01173960417509079
0.024680964648723602
0.037423036992549896
0.050123654305934906
0.06288551539182663
0.07570379227399826
0.08843021839857101
0.10075292736291885
0.11221785098314285
0.12226002663373947
0.13026902079582214
0.13566243648529053
0.13795867562294006
0.13683933019638062
0.13218477368354797
0.12408915907144547
0.11285241693258286
0.09895295649766922
0.08300546556711197
0.06570493429899216
0.04776699095964432
0.029860056936740875
0.012542150914669037
-0.003781519830226898
-0.01888854056596756
-0.03272939473390579
-0.045396409928798676
-0.05706498771905899
-0.06793942302465439
-0.07819456607103348
-0.08792416006326675
-0.09711556881666183
-0.10561632364988327
-0.11312621086835861
-0.11921460181474686
-0.12337889522314072
-0.12514665722846985
-0.12419832497835159
-0.12045798450708389
-0.1141185387969017
-0.10560179501771927
-0.09545885771512985
-0.08426880091428757
-0.07253048568964005
-0.060601361095905304
-0.04865289479494095
-0.03666941076517105
-0.024473078548908234
-0.011777766048908234
0.0017405077815055847
0.01635488122701645
0.03220314532518387
0.04921417683362961
0.06705323606729507
0.08510877937078476
0.10252519696950912
0.11827141791582108
0.13126134872436523
0.14049750566482544
0.1452023983001709
0.1449456512928009
0.13971871137619019
0.1299653947353363
0.11655541509389877
0.1007152572274208
0.0839371308684349
0.0678543969988823
0.05412604659795761
0.04432188719511032
0.03982589393854141
0.04175344854593277
0.05089012533426285
0.003651045262813568
0.0041737183928489685
0.004167728126049042
0.0037965402007102966
0.0032764896750450134
0.002830915153026581
0.0026573464274406433
0.00288420170545578
0.003550998866558075
0.004576586186885834
0.005757622420787811
0.00679498165845871
0.007355771958827972
0.007168523967266083
0.006109811365604401
0.004265524446964264
0.001915864646434784
-0.0005309954285621643
-0.0026438161730766296
-0.004076145589351654
-0.004645965993404388
-0.004379160702228546
-0.0035053715109825134
-0.002396233379840851
-0.0014789476990699768
-0.0011332109570503235
-0.0016009584069252014
-0.0029373839497566223
-0.004999302327632904
-0.007483132183551788
-0.009976528584957123
-0.012037433683872223
-0.013263605535030365
-0.013355039060115814
-0.01215999573469162
-0.009707935154438019
-0.006208650767803192
-0.0020321980118751526
0.0023415759205818176
0.006387583911418915
0.009617231786251068
0.011643193662166595
0.0122370645403862
0.01134604960680008
0.009098298847675323
0.005778856575489044
0.0017916187644004822
-0.002392284572124481
-0.006283022463321686
-0.009430937469005585
-0.011479713022708893
-0.012213774025440216
-0.011589296162128448
-0.00974256545305252
-0.0069634392857551575
-0.0036499276757240295
-0.00024747103452682495
0.0028187111020088196
0.005192644894123077
0.006629325449466705
0.007021017372608185
0.006422065198421478
0.00505424290895462
0.0032868310809135437
0.0015703216195106506
0.00032620877027511597
-0.0001672878861427307
0.00014049559831619263
0.0010639950633049011
0.0022432133555412292
0.003247387707233429
0.003683142364025116
0.003289051353931427
0.0019799992442131042
-0.00013191252946853638
-0.002754397690296173
-0.005465485155582428
-0.007773436605930328
-0.009192906320095062
-0.009324349462985992
-0.007922641932964325
-0.0049652233719825745
-0.0006720200181007385
0.004488818347454071
0.009840153157711029
0.014581121504306793
0.017897747457027435
0.019089512526988983
0.01768866926431656
0.013556979596614838
0.0069339945912361145
-0.0015566125512123108
-0.010957695543766022
-0.020054437220096588
-0.027478061616420746
-0.03182578831911087
-0.031763188540935516
-0.02613014727830887
-0.014013953506946564
0.005189888179302216
-0.023282594978809357
-0.009169556200504303
0.004349999129772186
0.017570696771144867
0.03083082288503647
0.044423602521419525
0.05851360410451889
0.07306020706892014
0.0877702459692955
0.10207908600568771
0.11518802493810654
0.1261751651763916
0.1341591775417328
0.13849782943725586
0.1389385461807251
0.13567623496055603
0.1292896270751953
0.12058759480714798
0.11041628569364548
0.09949415177106857
0.0882955864071846
0.07700849324464798
0.06555136293172836
0.05364588648080826
0.04094230383634567
0.02713429182767868
0.012061245739459991
-0.004221267998218536
-0.021435923874378204
-0.039100490510463715
-0.05659642070531845
-0.0732438787817955
-0.08837839215993881
-0.10142035037279129
-0.11193328350782394
-0.11965490132570267
-0.12452048808336258
-0.12665697932243347
-0.12635770440101624
-0.1240277960896492
-0.1201198473572731
-0.11505857855081558
-0.10918117314577103
-0.10269709676504135
-0.09567534178495407
-0.08805731683969498
-0.07968657463788986
-0.07034804672002792
-0.059815697371959686
-0.04789600521326065
-0.034468092024326324
-0.019529856741428375
-0.003223814070224762
0.014143221080303192
0.032109953463077545
0.0500965341925621
0.06745842844247818
0.08355488628149033
0.09780476242303848
0.10973096638917923
0.11899477988481522
0.12541848421096802
0.1290033459663391
0.129938542842865
0.12857642769813538
0.12535616755485535
0.12069802731275558
0.11488618701696396
0.1080079898238182
0.09995738416910172
0.09051632136106491
0.0794561579823494
0.0666404739022255
0.052087731659412384
0.03600568324327469
0.01877874881029129
0.0009353086352348328
-0.016904793679714203
-0.03409168869256973
-0.050012700259685516
-0.06415475159883499
-0.07616118341684341
-0.08587948232889175
-0.09337354451417923
-0.0989220067858696
-0.10297573357820511
-0.10608088225126266
-0.10877711325883865
-0.11149915307760239
-0.11447349935770035
-0.11765109747648239
-0.12067971378564835
-0.12291768938302994
-0.1234903410077095
-0.12136808782815933
-0.11546770483255386
-0.10475360602140427
-0.08832868188619614
-0.06551335006952286
-0.035902731120586395
-0.05080271512269974
-0.023089177906513214
0.004060916602611542
0.03101324290037155
0.05816730111837387
0.08582695573568344
0.11407314985990524
0.14265912771224976
0.17095166444778442
0.19793197512626648
0.2222827970981598
0.24256861209869385
0.25749117136001587
0.2661437690258026
0.2681894898414612
0.2639116942882538
0.25409528613090515
0.23981693387031555
0.222212016582489
0.202274352312088
0.18072795867919922
0.15798062086105347
0.13414648175239563
0.10912571102380753
0.0827227458357811
0.054768599569797516
0.025227241218090057
-0.005733557045459747
-0.03771478682756424
-0.07010284811258316
-0.10212064534425735
-0.1328999102115631
-0.16155904531478882
-0.18727591633796692
-0.20934778451919556
-0.2272331714630127
-0.24058544635772705
-0.2492629587650299
-0.25332748889923096
-0.25301507115364075
-0.24869272112846375
-0.24078747630119324
-0.22973021864891052
-0.21589481830596924
-0.19956806302070618
-0.18094313144683838
-0.16013306379318237
-0.13720235228538513
-0.11220438033342361
-0.08521529287099838
-0.056370340287685394
-0.02589651197195053
0.00586574524641037
0.03843571990728378
0.07119718939065933
0.10341272503137589
0.13427236676216125
0.16295206546783447
0.18867117166519165
0.21075424551963806
0.22865575551986694
0.2419925332069397
0.25056177377700806
0.2543641924858093
0.2536087930202484
0.24868324398994446
0.24007496237754822
0.22825878858566284
0.21359041333198547
0.19626078009605408
0.1763181984424591
0.15375220775604248
0.1285874843597412
0.10096638649702072
0.07118908315896988
0.03972510248422623
0.0071836188435554504
-0.025714106857776642
-0.05819190293550491
-0.08946271985769272
-0.11878552287817001
-0.14551305770874023
-0.16914191842079163
-0.18934375047683716
-0.20598885416984558
-0.21913662552833557
-0.2290056049823761
-0.23590752482414246
-0.2401731312274933
-0.24205979704856873
-0.24168309569358826
-0.238958477973938
-0.23358860611915588
-0.22508195042610168
-0.21280744671821594
-0.19606074690818787
-0.17415353655815125
-0.14649635553359985
-0.1126670315861702
-0.07247466593980789
-0.07871074229478836
-0.037393637001514435
0.003488682210445404
0.044279538094997406
0.0853499099612236
0.12692761421203613
0.1689431369304657
0.21091464161872864
0.2518859803676605
0.2904602587223053
0.3249381482601166
0.3535473346710205
0.3747371733188629
0.3874513804912567
0.39130398631095886
0.3865927457809448
0.3741759955883026
0.35523948073387146
0.3310573995113373
0.30279701948165894
0.27138471603393555
0.23745769262313843
0.20137688517570496
0.1632935106754303
0.12324970215559006
0.08128450065851212
0.037530772387981415
-0.007708407938480377
-0.0539267435669899
-0.10040763765573502
-0.14626026153564453
-0.19047793745994568
-0.23200750350952148
-0.2698226273059845
-0.3029879331588745
-0.33070921897888184
-0.35236790776252747
-0.3675539791584015
-0.37607935070991516
-0.3779788911342621
-0.3734883964061737
-0.36300429701805115
-0.3470177948474884
-0.3260587155818939
-0.3006402254104614
-0.2712211608886719
-0.23820391297340393
-0.20194467902183533
-0.16277706623077393
-0.12104780226945877
-0.0771447941660881
-0.03152809292078018
0.015255473554134369
0.0625474825501442
0.10957256704568863
0.15545040369033813
0.19922301173210144
0.2399066984653473
0.27655190229415894
0.30830156803131104
0.33443233370780945
0.35438165068626404
0.36777353286743164
0.37444132566452026
0.3744451701641083
0.36808106303215027
0.35583972930908203
0.3383190929889679
0.3161109387874603
0.2897007465362549
0.2594388723373413
0.2255726456642151
0.18832379579544067
0.14797723293304443
0.10493316501379013
0.05973825603723526
0.013074137270450592
-0.034258998930454254
-0.08137539774179459
-0.1273474395275116
-0.1712360978126526
-0.21214213967323303
-0.2492486536502838
-0.28186237812042236
-0.30946168303489685
-0.3317064940929413
-0.34846141934394836
-0.3597658574581146
-0.36578285694122314
-0.3667529225349426
-0.3629033863544464
-0.3543991148471832
-0.3412834703922272
-0.3234754502773285
-0.3007691502571106
-0.27288660407066345
-0.23952817916870117
-0.20044228434562683
-0.1554931402206421
-0.1047166958451271
-0.10668168216943741
-0.0518178716301918
0.0028268620371818542
0.057463638484478
0.11231701821088791
0.16744092106819153
0.2225513756275177
0.2769114077091217
0.32929548621177673
0.3780536353588104
0.42127910256385803
0.4570580720901489
0.4837591052055359
0.5002674460411072
0.5061437487602234
0.5016233325004578
0.48749300837516785
0.4648961126804352
0.4351150095462799
0.3993896543979645
0.35880106687545776
0.31420964002609253
0.2662546634674072
0.2153921127319336
0.161969393491745
0.10629754513502121
0.04873005300760269
-0.010265640914440155
-0.0700669214129448
-0.1298719048500061
-0.18870946764945984
-0.24547436833381653
-0.2989881932735443
-0.34806278347969055
-0.3915700614452362
-0.42849430441856384
-0.45798006653785706
-0.4793703258037567
-0.4922373592853546
-0.49640515446662903
-0.4919551908969879
-0.47921016812324524
-0.45868638157844543
-0.43104004859924316
-0.3969913721084595
-0.3572680354118347
-0.3125680983066559
-0.2635444700717926
-0.21081456542015076
-0.1549864411354065
-0.09668964892625809
-0.036602891981601715
0.024524860084056854
0.0858539566397667
0.14645078778266907
0.205288827419281
0.2612702548503876
0.3132677674293518
0.36017781496047974
0.4009842574596405
0.4348008632659912
0.4609173834323883
0.47881534695625305
0.4881947934627533
0.48899272084236145
0.4814099967479706
0.46590232849121094
0.4431280791759491
0.4138505160808563
0.3788165748119354
0.3386756479740143
0.29395169019699097
0.24509111046791077
0.19254064559936523
0.13680937886238098
0.07852465659379959
0.01843864470720291
-0.0425722673535347
-0.10352864116430283
-0.16337189078330994
-0.22099518775939941
-0.27527692914009094
-0.32512563467025757
-0.3695255219936371
-0.40759432315826416
-0.4386264979839325
-0.4621325433254242
-0.47785940766334534
-0.485777348279953
-0.4860515892505646
-0.4789797365665436
-0.46492329239845276
-0.4442465603351593
-0.41726213693618774
-0.3842056691646576
-0.3452390134334564
-0.300477534532547
-0.2500360608100891
-0.1940840482711792
-0.13290131092071533
-0.1342478096485138
-0.06603661924600601
0.0022468194365501404
0.07055144757032394
0.13883227109909058
0.2068706452846527
0.2741149067878723
0.339589387178421
0.4018826186656952
0.4592418968677521
0.5097410678863525
0.5515052080154419
0.5829468369483948
0.6029571890830994
0.6110190749168396
0.607219398021698
0.5921690464019775
0.5668520927429199
0.5324591398239136
0.49023211002349854
0.4413509666919708
0.3868725597858429
0.327709823846817
0.2646474540233612
0.19837376475334167
0.12951862812042236
0.05870785564184189
-0.01338910311460495
-0.08600810915231705
-0.15825793147087097
-0.2291000783443451
-0.29736655950546265
-0.36179012060165405
-0.42106667160987854
-0.47391656041145325
-0.5191502571105957
-0.5557166934013367
-0.5827536582946777
-0.5996282696723938
-0.6059687733650208
-0.6016989946365356
-0.5870406627655029
-0.562493622303009
-0.5287895798683167
-0.4868161380290985
-0.4375446140766144
-0.381955623626709
-0.32100096344947815
-0.2555831968784332
-0.1865699589252472
-0.11481887847185135
-0.04121004790067673
0.03332362323999405
0.10777343064546585
0.18105018138885498
0.25198179483413696
0.3193328082561493
0.3818373382091522
0.4382493197917938
0.4874028265476227
0.5282719731330872
0.5600131154060364
0.58199542760849
0.5938225984573364
0.5953494906425476
0.5867070555686951
0.5683078169822693
0.5408285856246948
0.5051352977752686
0.46217241883277893
0.4128444492816925
0.3579479157924652
0.29816219210624695
0.23411041498184204
0.16642850637435913
0.09583159536123276
0.02315112203359604
-0.05065927654504776
-0.12451893836259842
-0.19724932312965393
-0.2675860822200775
-0.3342110216617584
-0.39579853415489197
-0.45105913281440735
-0.49880388379096985
-0.5380046963691711
-0.567859411239624
-0.5878356695175171
-0.5977024435997009
-0.5975171327590942
-0.5875951051712036
-0.5684433579444885
-0.5406934022903442
-0.5050116181373596
-0.46205076575279236
-0.41240736842155457
-0.35661742091178894
-0.29517459869384766
-0.22857153415679932
-0.15734869241714478
-0.1608159840106964
-0.07968435436487198
0.0018667206168174744
0.08339252322912216
0.16446253657341003
0.2445019781589508
0.3226691782474518
0.3977923095226288
0.4683878719806671
0.5327535271644592
0.5891026854515076
0.6357343792915344
0.6711845397949219
0.6943637132644653
0.7046469449996948
0.7019158005714417
0.6865366101264954
0.659279465675354
0.6211888194084167
0.5734618306159973
0.5173289179801941
0.4539947807788849
0.3846100866794586
0.31025969982147217
0.23197436332702637
0.15072596073150635
0.06744777411222458
-0.016940303146839142
-0.101495660841465
-0.18521210551261902
-0.2669799029827118
-0.3455817401409149
-0.4196959137916565
-0.48794522881507874
-0.5489476323127747
-0.6013891100883484
-0.6440757513046265
-0.6759940981864929
-0.6963508129119873
-0.7046223282814026
-0.7005898356437683
-0.6843635439872742
-0.6563913226127625
-0.617419421672821
-0.5684457421302795
-0.5106253027915955
-0.44519302248954773
-0.37338265776634216
-0.29638203978538513
-0.21532002091407776
-0.13128146529197693
-0.04533756524324417
0.04141601175069809
0.1278252899646759
0.21266275644302368
0.2946232855319977
0.3723390996456146
0.44440892338752747
0.5094515085220337
0.5661621689796448
0.6133820414543152
0.6501504778862
0.6757454872131348
0.6897050738334656
0.6918408870697021
0.6822495460510254
0.6613236665725708
0.6297379732131958
0.5884061455726624
0.5383946299552917
0.48079830408096313
0.4166392683982849
0.34682318568229675
0.2721582055091858
0.19342082738876343
0.11143278330564499
0.027114905416965485
-0.05848255008459091
-0.14417678117752075
-0.22865942120552063
-0.31051695346832275
-0.38825806975364685
-0.4603588283061981
-0.5253049731254578
-0.5816623568534851
-0.6281487345695496
-0.6637042164802551
-0.6875637173652649
-0.6993061900138855
-0.698871910572052
-0.6865544319152832
-0.6629467606544495
-0.6288747191429138
-0.5852959752082825
-0.5332263112068176
-0.47366324067115784
-0.40754589438438416
-0.335747629404068
-0.2590910494327545
-0.17839163541793823
-0.18568241596221924
-0.09236983209848404
0.0017371997237205505
0.09569256752729416
0.18858692049980164
0.27943840622901917
0.3671249747276306
0.4503469169139862
0.527661919593811
0.5975458025932312
0.6584687829017639
0.7089700102806091
0.7477401494979858
0.7736967206001282
0.7860797047615051
0.7845396399497986
0.769180953502655
0.7405503392219543
0.6995468735694885
0.6473022103309631
0.5850606560707092
0.5141175985336304
0.4357885420322418
0.3514001667499542
0.26227810978889465
0.16972628235816956
0.07500449568033218
-0.020679719746112823
-0.11615736037492752
-0.21026146411895752
-0.30178993940353394
-0.38947245478630066
-0.47195717692375183
-0.5478304028511047
-0.6156620383262634
-0.6740646958351135
-0.7217625975608826
-0.7576461434364319
-0.7808231711387634
-0.7906634211540222
-0.7868406772613525
-0.7693621516227722
-0.7385945916175842
-0.6952551007270813
-0.640373170375824
-0.5752201676368713
-0.5012194514274597
-0.4198515713214874
-0.3325768709182739
-0.24079015851020813
-0.14581221342086792
-0.04890688508749008
0.04867532104253769
0.14566105604171753
0.24071204662322998
0.3324173390865326
0.41929686069488525
0.4998305141925812
0.5725091099739075
0.6358988881111145
0.6887155175209045
0.7298896312713623
0.7586193680763245
0.7743975520133972
0.7770207524299622
0.7665876150131226
0.7434932589530945
0.7084179520606995
0.6622914671897888
0.606232225894928
0.541448175907135
0.46912744641304016
0.3903655707836151
0.3061530292034149
0.2174195945262909
0.12511149048805237
0.030260585248470306
-0.06597257405519485
-0.16228574514389038
-0.25723734498023987
-0.34926629066467285