# vtk DataFile Version 3.0
2D PINN Solution
ASCII
DATASET STRUCTURED_GRID
DIMENSIONS 100 100 1
POINTS 10000 float
-1.0 -1.0 0.0
-0.9797979797979798 -1.0 0.0
-0.9595959595959596 -1.0 0.0
-0.9393939393939394 -1.0 0.0
-0.9191919191919192 -1.0 0.0
-0.898989898989899 -1.0 0.0
-0.8787878787878788 -1.0 0.0
-0.8585858585858586 -1.0 0.0
-0.8383838383838383 -1.0 0.0
-0.8181818181818181 -1.0 0.0
-0.797979797979798 -1.0 0.0
-0.7777777777777778 -1.0 0.0
-0.7575757575757576 -1.0 0.0
-0.7373737373737373 -1.0 0.0
-0.7171717171717171 -1.0 0.0
-0.696969696969697 -1.0 0.0
-0.6767676767676767 -1.0 0.0
-0.6565656565656566 -1.0 0.0
-0.6363636363636364 -1.0 0.0
-0.6161616161616161 -1.0 0.0
-0.5959595959595959 -1.0 0.0
-0.5757575757575757 -1.0 0.0
-0.5555555555555556 -1.0 0.0
-0.5353535353535352 -1.0 0.0
-0.5151515151515151 -1.0 0.0
-0.4949494949494949 -1.0 0.0
-0.4747474747474747 -1.0 0.0
-0.4545454545454545 -1.0 0.0
-0.43434343434343425 -1.0 0.0
-0.41414141414141414 -1.0 0.0
-0.3939393939393939 -1.0 0.0
-0.3737373737373737 -1.0 0.0
-0.3535353535353535 -1.0 0.0
-0.33333333333333326 -1.0 0.0
-0.31313131313131304 -1.0 0.0
-0.2929292929292928 -1.0 0.0
-0.2727272727272727 -1.0 0.0
-0.2525252525252525 -1.0 0.0
-0.23232323232323226 -1.0 0.0
-0.21212121212121204 -1.0 0.0
-0.19191919191919182 -1.0 0.0
-0.1717171717171716 -1.0 0.0
-0.1515151515151515 -1.0 0.0
-0.13131313131313127 -1.0 0.0
-0.11111111111111105 -1.0 0.0
-0.09090909090909083 -1.0 0.0
-0.07070707070707061 -1.0 0.0
-0.050505050505050386 -1.0 0.0
-0.030303030303030276 -1.0 0.0
-0.010101010101010055 -1.0 0.0
0.010101010101010166 -1.0 0.0
0.030303030303030498 -1.0 0.0
0.05050505050505061 -1.0 0.0
0.07070707070707072 -1.0 0.0
0.09090909090909105 -1.0 0.0
0.11111111111111116 -1.0 0.0
0.1313131313131315 -1.0 0.0
0.1515151515151516 -1.0 0.0
0.1717171717171717 -1.0 0.0
0.19191919191919204 -1.0 0.0
0.21212121212121215 -1.0 0.0
0.2323232323232325 -1.0 0.0
0.2525252525252526 -1.0 0.0
0.27272727272727293 -1.0 0.0
0.29292929292929304 -1.0 0.0
0.31313131313131315 -1.0 0.0
0.3333333333333335 -1.0 0.0
0.3535353535353536 -1.0 0.0
0.3737373737373739 -1.0 0.0
0.39393939393939403 -1.0 0.0
0.41414141414141437 -1.0 0.0
0.4343434343434345 -1.0 0.0
0.4545454545454546 -1.0 0.0
0.4747474747474749 -1.0 0.0
0.49494949494949503 -1.0 0.0
0.5151515151515154 -1.0 0.0
0.5353535353535355 -1.0 0.0
0.5555555555555556 -1.0 0.0
0.5757575757575759 -1.0 0.0
0.595959595959596 -1.0 0.0
0.6161616161616164 -1.0 0.0
0.6363636363636365 -1.0 0.0
0.6565656565656568 -1.0 0.0
0.6767676767676769 -1.0 0.0
0.696969696969697 -1.0 0.0
0.7171717171717173 -1.0 0.0
0.7373737373737375 -1.0 0.0
0.7575757575757578 -1.0 0.0
0.7777777777777779 -1.0 0.0
0.7979797979797982 -1.0 0.0
0.8181818181818183 -1.0 0.0
0.8383838383838385 -1.0 0.0
0.8585858585858588 -1.0 0.0
0.8787878787878789 -1.0 0.0
0.8989898989898992 -1.0 0.0
0.9191919191919193 -1.0 0.0
0.9393939393939394 -1.0 0.0
0.9595959595959598 -1.0 0.0
0.9797979797979799 -1.0 0.0
1.0 -1.0 0.0
-1.0 -0.9797979797979798 0.0
-0.9797979797979798 -0.9797979797979798 0.0
-0.9595959595959596 -0.9797979797979798 0.0
-0.9393939393939394 -0.9797979797979798 0.0
-0.9191919191919192 -0.9797979797979798 0.0
-0.898989898989899 -0.9797979797979798 0.0
-0.8787878787878788 -0.9797979797979798 0.0
-0.8585858585858586 -0.9797979797979798 0.0
-0.8383838383838383 -0.9797979797979798 0.0
-0.8181818181818181 -0.9797979797979798 0.0
-0.797979797979798 -0.9797979797979798 0.0
-0.7777777777777778 -0.9797979797979798 0.0
-0.7575757575757576 -0.9797979797979798 0.0
-0.7373737373737373 -0.9797979797979798 0.0
-0.7171717171717171 -0.9797979797979798 0.0
-0.696969696969697 -0.9797979797979798 0.0
-0.6767676767676767 -0.9797979797979798 0.0
-0.6565656565656566 -0.9797979797979798 0.0
-0.6363636363636364 -0.9797979797979798 0.0
-0.6161616161616161 -0.9797979797979798 0.0
-0.5959595959595959 -0.9797979797979798 0.0
-0.5757575757575757 -0.9797979797979798 0.0
-0.5555555555555556 -0.9797979797979798 0.0
-0.5353535353535352 -0.9797979797979798 0.0
-0.5151515151515151 -0.9797979797979798 0.0
-0.4949494949494949 -0.9797979797979798 0.0
-0.4747474747474747 -0.9797979797979798 0.0
-0.4545454545454545 -0.9797979797979798 0.0
-0.43434343434343425 -0.9797979797979798 0.0
-0.41414141414141414 -0.9797979797979798 0.0
-0.3939393939393939 -0.9797979797979798 0.0
-0.3737373737373737 -0.9797979797979798 0.0
-0.3535353535353535 -0.9797979797979798 0.0
-0.33333333333333326 -0.9797979797979798 0.0
-0.31313131313131304 -0.9797979797979798 0.0
-0.2929292929292928 -0.9797979797979798 0.0
-0.2727272727272727 -0.9797979797979798 0.0
-0.2525252525252525 -0.9797979797979798 0.0
-0.23232323232323226 -0.9797979797979798 0.0
-0.21212121212121204 -0.9797979797979798 0.0
-0.19191919191919182 -0.9797979797979798 0.0
-0.1717171717171716 -0.9797979797979798 0.0
-0.1515151515151515 -0.9797979797979798 0.0
-0.13131313131313127 -0.9797979797979798 0.0
-0.11111111111111105 -0.9797979797979798 0.0
-0.09090909090909083 -0.9797979797979798 0.0
-0.07070707070707061 -0.9797979797979798 0.0
-0.050505050505050386 -0.9797979797979798 0.0
-0.030303030303030276 -0.9797979797979798 0.0
-0.010101010101010055 -0.9797979797979798 0.0
0.010101010101010166 -0.9797979797979798 0.0
0.030303030303030498 -0.9797979797979798 0.0
0.05050505050505061 -0.9797979797979798 0.0
0.07070707070707072 -0.9797979797979798 0.0
0.09090909090909105 -0.9797979797979798 0.0
0.11111111111111116 -0.9797979797979798 0.0
0.1313131313131315 -0.9797979797979798 0.0
0.1515151515151516 -0.9797979797979798 0.0
0.1717171717171717 -0.9797979797979798 0.0
0.19191919191919204 -0.9797979797979798 0.0
0.21212121212121215 -0.9797979797979798 0.0
0.2323232323232325 -0.9797979797979798 0.0
0.2525252525252526 -0.9797979797979798 0.0
0.27272727272727293 -0.9797979797979798 0.0
0.29292929292929304 -0.9797979797979798 0.0
0.31313131313131315 -0.9797979797979798 0.0
0.3333333333333335 -0.9797979797979798 0.0
0.3535353535353536 -0.9797979797979798 0.0
0.3737373737373739 -0.9797979797979798 0.0
0.39393939393939403 -0.9797979797979798 0.0
0.41414141414141437 -0.9797979797979798 0.0
0.4343434343434345 -0.9797979797979798 0.0
0.4545454545454546 -0.9797979797979798 0.0
0.4747474747474749 -0.9797979797979798 0.0
0.49494949494949503 -0.9797979797979798 0.0
0.5151515151515154 -0.9797979797979798 0.0
0.5353535353535355 -0.9797979797979798 0.0
0.5555555555555556 -0.9797979797979798 0.0
0.5757575757575759 -0.9797979797979798 0.0
0.595959595959596 -0.9797979797979798 0.0
0.6161616161616164 -0.9797979797979798 0.0
0.6363636363636365 -0.9797979797979798 0.0
0.6565656565656568 -0.9797979797979798 0.0
0.6767676767676769 -0.9797979797979798 0.0
0.696969696969697 -0.9797979797979798 0.0
0.7171717171717173 -0.9797979797979798 0.0
0.7373737373737375 -0.9797979797979798 0.0
0.7575757575757578 -0.9797979797979798 0.0
0.7777777777777779 -0.9797979797979798 0.0
0.7979797979797982 -0.9797979797979798 0.0
0.8181818181818183 -0.9797979797979798 0.0
0.8383838383838385 -0.9797979797979798 0.0
0.8585858585858588 -0.9797979797979798 0.0
0.8787878787878789 -0.9797979797979798 0.0
0.8989898989898992 -0.9797979797979798 0.0
0.9191919191919193 -0.9797979797979798 0.0
0.9393939393939394 -0.9797979797979798 0.0
0.9595959595959598 -0.9797979797979798 0.0
0.9797979797979799 -0.9797979797979798 0.0
1.0 -0.9797979797979798 0.0
-1.0 -0.9595959595959596 0.0
-0.9797979797979798 -0.9595959595959596 0.0
-0.9595959595959596 -0.9595959595959596 0.0
-0.9393939393939394 -0.9595959595959596 0.0
-0.9191919191919192 -0.9595959595959596 0.0
-0.898989898989899 -0.9595959595959596 0.0
-0.8787878787878788 -0.9595959595959596 0.0
-0.8585858585858586 -0.9595959595959596 0.0
-0.8383838383838383 -0.9595959595959596 0.0
-0.8181818181818181 -0.9595959595959596 0.0
-0.797979797979798 -0.9595959595959596 0.0
-0.7777777777777778 -0.9595959595959596 0.0
-0.7575757575757576 -0.9595959595959596 0.0
-0.7373737373737373 -0.9595959595959596 0.0
-0.7171717171717171 -0.9595959595959596 0.0
-0.696969696969697 -0.9595959595959596 0.0
-0.6767676767676767 -0.9595959595959596 0.0
-0.6565656565656566 -0.9595959595959596 0.0
-0.6363636363636364 -0.9595959595959596 0.0
-0.6161616161616161 -0.9595959595959596 0.0
-0.5959595959595959 -0.9595959595959596 0.0
-0.5757575757575757 -0.9595959595959596 0.0
-0.5555555555555556 -0.9595959595959596 0.0
-0.5353535353535352 -0.9595959595959596 0.0
-0.5151515151515151 -0.9595959595959596 0.0
-0.4949494949494949 -0.9595959595959596 0.0
-0.4747474747474747 -0.9595959595959596 0.0
-0.4545454545454545 -0.9595959595959596 0.0
-0.43434343434343425 -0.9595959595959596 0.0
-0.41414141414141414 -0.9595959595959596 0.0
-0.3939393939393939 -0.9595959595959596 0.0
-0.3737373737373737 -0.9595959595959596 0.0
-0.3535353535353535 -0.9595959595959596 0.0
-0.33333333333333326 -0.9595959595959596 0.0
-0.31313131313131304 -0.9595959595959596 0.0
-0.2929292929292928 -0.9595959595959596 0.0
-0.2727272727272727 -0.9595959595959596 0.0
-0.2525252525252525 -0.9595959595959596 0.0
-0.23232323232323226 -0.9595959595959596 0.0
-0.21212121212121204 -0.9595959595959596 0.0
-0.19191919191919182 -0.9595959595959596 0.0
-0.1717171717171716 -0.9595959595959596 0.0
-0.1515151515151515 -0.9595959595959596 0.0
-0.13131313131313127 -0.9595959595959596 0.0
-0.11111111111111105 -0.9595959595959596 0.0
-0.09090909090909083 -0.9595959595959596 0.0
-0.07070707070707061 -0.9595959595959596 0.0
-0.050505050505050386 -0.9595959595959596 0.0
-0.030303030303030276 -0.9595959595959596 0.0
-0.010101010101010055 -0.9595959595959596 0.0
0.010101010101010166 -0.9595959595959596 0.0
0.030303030303030498 -0.9595959595959596 0.0
0.05050505050505061 -0.9595959595959596 0.0
0.07070707070707072 -0.9595959595959596 0.0
0.09090909090909105 -0.9595959595959596 0.0
0.11111111111111116 -0.9595959595959596 0.0
0.1313131313131315 -0.9595959595959596 0.0
0.1515151515151516 -0.9595959595959596 0.0
0.1717171717171717 -0.9595959595959596 0.0
0.19191919191919204 -0.9595959595959596 0.0
0.21212121212121215 -0.9595959595959596 0.0
[...]
POINT_DATA 10000
SCALARS u float 1
LOOKUP_TABLE default
0.35806262493133545
0.4006524682044983
0.43770256638526917
0.46881574392318726
0.4936573803424835
0.5119500756263733
0.5234708786010742
0.5280540585517883
0.5255892276763916
0.5160219073295593
0.4993618130683899
0.4756823480129242
0.44513165950775146
0.40793469548225403
0.36439958214759827
0.3149225413799286
0.2599940299987793
0.20019862055778503
0.13621893525123596
0.06883995980024338
-0.0010503306984901428
-0.07245189696550369
-0.14425182342529297
-0.21521499752998352
-0.2840023636817932
-0.3491869866847992
-0.409305602312088
-0.4629195034503937
-0.5086916089057922
-0.545462429523468
-0.5723247528076172
-0.588660478591919
-0.594177782535553
-0.5889033675193787
-0.5731745958328247
-0.5475942492485046
-0.5129846930503845
-0.47032514214515686
-0.4206964075565338
-0.36521291732788086
-0.30497363209724426
-0.24102717638015747
-0.17435118556022644
-0.10585881024599075
-0.0364064946770668
0.03317414969205856
0.10205144435167313
0.16937080025672913
0.23424330353736877
0.29574036598205566
0.3529103696346283
0.40480151772499084
0.4504939913749695
0.4891333281993866
0.5199729204177856
0.5423943400382996
0.555939793586731
0.5603276491165161
0.5554584264755249
0.5414297580718994
0.5185202360153198
0.4871905744075775
0.4480496942996979
0.40182414650917053
0.3493190407752991
0.2913774847984314
0.2288489043712616
0.1625855565071106
0.09344389289617538
0.02230868488550186
-0.049878768622875214
-0.12210103124380112
-0.19325166940689087
-0.2621377110481262
-0.32750481367111206
-0.38807448744773865
-0.44258955121040344
-0.4898732602596283
-0.5288848280906677
-0.5587713718414307
-0.5789057612419128
-0.5889177918434143
-0.5887055993080139
-0.5784278512001038
-0.5584834218025208
-0.5294841527938843
-0.49220946431159973
-0.4475528299808502
-0.39647892117500305
-0.3399680554866791
-0.27897369861602783
-0.2143893837928772
-0.1470254361629486
-0.07760036736726761
-0.006744123995304108
0.06498255580663681
0.13707000017166138
0.20902574062347412
0.28035128116607666
0.35052624344825745
0.4108465909957886
0.4582212269306183
0.4999348521232605
0.5355006456375122
0.5644901394844055
0.5865316987037659
0.6013055443763733
0.6085395216941833
0.6080102920532227
0.5995423793792725
0.5830143690109253
0.5583620667457581
0.5255942344665527
0.4847944378852844
0.43614667654037476
0.3799470365047455
0.31662508845329285
0.24676740169525146
0.1711326241493225
0.09067832678556442
0.006568841636180878
-0.07981716841459274
-0.1668933629989624
-0.25290074944496155
-0.3359565734863281
-0.4141332805156708
-0.4855569899082184
-0.548505961894989
-0.6015032529830933
-0.643381655216217
-0.67332524061203
-0.69087153673172
-0.6958971619606018
-0.6885891556739807
-0.6694043278694153
-0.6390285491943359
-0.5983443856239319
-0.5483850836753845
-0.4902927577495575
-0.4252738654613495
-0.3545547127723694
-0.2793460786342621
-0.20081716775894165
-0.12008888274431229
-0.03823981434106827
0.043676070868968964
0.12461135536432266
0.2035013735294342
0.27926579117774963
0.3508078455924988
0.4170386791229248
0.47690537571907043
0.5294210910797119
0.5737066268920898
0.6090065836906433
0.6347134113311768
0.6503793001174927
0.6557187438011169
0.6506114602088928
0.6351038217544556
0.6094096302986145
0.5739108920097351
0.5291504859924316
0.4758266508579254
0.4147683084011078
0.3469076156616211
0.2732612192630768
0.19490349292755127
0.11296553909778595
0.028633199632167816
-0.05684279650449753
-0.1421399712562561
-0.22587132453918457
-0.3066008388996124
-0.38287222385406494
-0.4532509744167328
-0.5163705945014954
-0.5709795355796814
-0.6159900426864624
-0.6505191922187805
-0.6739145517349243
-0.6857818961143494
-0.6859868764877319
-0.6746551990509033
-0.6521603465080261
-0.6191031336784363
-0.5762752890586853
-0.5246257781982422
-0.4652203619480133
-0.39918747544288635
-0.3276820778846741
-0.25183776021003723
-0.1727387011051178
-0.09139350801706314
-0.008728988468647003
0.07440610975027084
0.15723246335983276
0.23901763558387756
0.3190625309944153
0.3966836929321289
0.45737990736961365
0.5096677541732788
0.5562533140182495
0.5965524315834045
0.6300359964370728
0.6562314629554749
0.674710214138031
0.6850832104682922
0.686999499797821
0.6801438927650452
0.6642394661903381
0.6390589475631714
0.6044369339942932
0.5602906942367554
0.5066489577293396
0.4436906576156616
0.3717873692512512
0.29154956340789795
0.20387735962867737
0.10999507457017899
0.0114683136343956
-0.08980225771665573
-0.19163629412651062
-0.2916617691516876
-0.3874387741088867
-0.4766066372394562
-0.5570226311683655
-0.6268796920776367
-0.6847745776176453
-0.7297340035438538
-0.7611928582191467
-0.7789459824562073
-0.7830873131752014
-0.7739503979682922
-0.7520628571510315
-0.7181125283241272
-0.6729285717010498
-0.6174675226211548
-0.5528029203414917
-0.48010584712028503
-0.40062591433525085
-0.31566324830055237
-0.22654283046722412
-0.13459819555282593
-0.04115677624940872
0.05245286971330643
0.14490684866905212
0.23487678170204163
0.32104578614234924
0.4021226763725281
0.476872056722641
0.5441475510597229
0.6029226779937744
0.6523125767707825
0.6915912628173828
0.7201876044273376
0.7376872897148132
0.7438196539878845
0.7384518384933472
0.7215865850448608
0.693367063999176
0.654086709022522
0.6042056083679199
0.5443610548973083
0.47537752985954285
0.398261696100235
0.3141839802265167
0.22446125745773315
0.13052505254745483
0.033900946378707886
-0.06381840258836746
-0.16099539399147034
-0.2559732496738434
-0.3471071124076843
-0.43279919028282166
-0.5115306973457336
-0.5818993449211121
-0.6426551938056946
-0.6927253603935242
-0.7312422394752502
-0.757560133934021
-0.7712650895118713
-0.7721832394599915
-0.7603799700737
-0.7361548542976379
-0.7000346779823303
-0.6527578234672546
-0.5952579379081726
-0.5286269783973694
-0.4540911018848419
-0.3729640245437622
-0.2866060733795166
-0.19637563824653625
-0.10360343009233475
-0.009548746049404144
0.08460190147161484
0.17775312066078186
0.2688941955566406
0.35709717869758606
0.44150808453559875
0.4965711236000061
0.5537526607513428
0.6052740216255188
0.6504441499710083
0.6886287927627563
0.7192409634590149
0.7417371273040771
0.755596935749054
0.7603310942649841
0.7554662227630615
0.7405520677566528
0.7151725888252258
0.6789642572402954
0.6316543817520142
0.5730991959571838
0.5033575892448425
0.42276260256767273
0.33200526237487793
0.23221123218536377
0.1249922439455986
0.012455649673938751
-0.1028570905327797
-0.21808525919914246
-0.330241858959198
-0.4364112913608551
-0.5339580178260803
-0.6206828951835632
-0.694907009601593
-0.7554947733879089
-0.8017980456352234
-0.8335813879966736
-0.85091632604599
-0.854094922542572
-0.843557596206665
-0.8198447227478027
-0.7835797667503357
-0.7354652881622314
-0.6762996315956116
-0.6069952249526978
-0.5285941958427429
-0.44227519631385803
-0.3493521809577942
-0.25125208497047424
-0.1494992971420288
-0.04567945748567581
0.058576397597789764
0.16162410378456116
0.261833131313324
0.3576187789440155
0.44747790694236755
0.5300287008285522
0.6040427088737488
0.6684675812721252
0.722436249256134
0.7652636170387268
0.7964264750480652
0.8155502676963806
0.8223803639411926
0.8167725205421448
0.7986870408058167
0.7681986689567566
0.7255160212516785
0.671016275882721
0.605277955532074
0.5291162729263306
0.44360312819480896
0.35006487369537354
0.2500603199005127
0.14533492922782898
0.03776020556688309
-0.07072792202234268
-0.1781907081604004
-0.2827390730381012
-0.38257208466529846
-0.4760107100009918
-0.5615196824073792
-0.6377263069152832
-0.7034294009208679
-0.7576155066490173
-0.7994604110717773
-0.8283384442329407
-0.8438237309455872
-0.8456937670707703
-0.833934485912323
-0.8087421655654907
-0.7705297470092773
-0.7199298739433289
-0.657795250415802
-0.5851913094520569
-0.5033782124519348
-0.4137825071811676
-0.31795641779899597
-0.21753129363059998
-0.11415953189134598
-0.009467758238315582
0.09499045461416245
0.19776642322540283
0.2975395619869232
0.3931337296962738
0.4835200607776642
0.527542769908905
0.5894467234611511
0.6458093523979187
0.6958288550376892
0.7387553453445435
0.7738829255104065
0.8005366325378418
0.8180605173110962
0.8258064389228821
0.8231320977210999
0.8093973994255066
0.7839824557304382
0.7463124394416809
0.6959127187728882
0.6324750781059265
0.5559614896774292
0.466717928647995
0.36559876799583435
0.25406786799430847
0.13425588607788086
0.008917517960071564
-0.11869213730096817
-0.24505624175071716
-0.36667224764823914
-0.48033663630485535
-0.5833659768104553
-0.6737208366394043
-0.7500330805778503
-0.8115361332893372
-0.8579514622688293
-0.889353334903717
-0.9060444235801697
-0.9084528088569641
-0.8970631957054138
-0.8723825812339783
-0.8349277973175049
-0.7852466702461243
-0.7239489555358887
-0.6517500281333923
-0.569513738155365
-0.4782922565937042
-0.37934625148773193
-0.2741478979587555
-0.16436639428138733
-0.05182027071714401
0.06156455725431442
0.17381954193115234
0.2830032706260681
0.38725724816322327
0.4848679304122925
0.5743151307106018
0.6542947888374329
0.7237374186515808
0.7817912697792053
0.8278089165687561
0.861305296421051
0.8819277882575989
0.8894268870353699
0.8836373090744019
0.8644765615463257
0.831957995891571
0.7862226963043213
0.7275885939598083
0.6566035151481628
0.5741004943847656
0.48123180866241455
0.3794870674610138
0.27065980434417725
0.1567865014076233
0.04005438834428787
-0.07730352133512497
-0.19309917092323303
-0.30527210235595703
-0.41192635893821716
-0.5113586187362671
-0.6020642518997192
-0.6827352046966553
-0.7522473931312561
-0.8096568584442139
-0.8541924953460693
-0.8852524161338806
-0.9023976922035217
-0.9053555727005005
-0.8940281271934509
-0.8684971928596497
-0.8290448784828186
-0.7761679291725159
-0.7106044292449951
-0.633343517780304
-0.5456281304359436
-0.44894954562187195
-0.34500908851623535
-0.23567798733711243
-0.12291879206895828
-0.008725471794605255
0.10496585816144943
0.21633616089820862
0.3237406313419342
0.4257427155971527
0.5211430788040161
0.5496558547019958
0.615953266620636
0.6769006848335266
0.7315789461135864
0.7791146039962769
0.8186700940132141
0.8494314551353455
0.8705899119377136
0.8813318014144897
0.8808311820030212
0.8682501912117004
0.8427588939666748
0.8035768866539001
0.7500450015068054
0.6817241311073303
0.5985420346260071
0.5009480714797974
0.39007338881492615
0.2678464651107788
0.13700902462005615
0.0010130032896995544
-0.13622519373893738
-0.27066782116889954
-0.3985234797000885
-0.5165460109710693
-0.6222383975982666
-0.7138877511024475
-0.7905153632164001
-0.8517317175865173
-0.8975736498832703
-0.9283459186553955
-0.9444898962974548
-0.9464913010597229
-0.9348207712173462
-0.9099145531654358
-0.8721715807914734
-0.821988046169281
-0.7597975730895996
-0.6861298680305481
-0.6016769409179688
-0.5073463320732117
-0.4043181836605072
-0.29406166076660156
-0.17832881212234497
-0.0591152086853981
0.06140916794538498
0.18100374937057495
0.29744747281074524
0.4086393117904663
0.5126811265945435
0.6079228520393372
0.6929923295974731
0.7667880654335022
0.8284597396850586
0.8773645758628845
0.9130239486694336
0.9350793957710266
0.943260133266449
0.9373645782470703
0.9172642827033997
0.8829250931739807
0.8344523906707764
0.772150456905365
0.6965891122817993
0.6086717844009399
0.5096743702888489
0.40125951170921326
0.2854350805282593
0.16447533667087555
0.04079931974411011
-0.08315364271402359
-0.20504358410835266
-0.3227126896381378
-0.43423205614089966
-0.5379161834716797
-0.6323104500770569
-0.7161737680435181
-0.7884543538093567
-0.8482689261436462
-0.8948890566825867
-0.9277268648147583
-0.9463319182395935
-0.950386106967926
-0.9397128224372864
-0.9142885804176331
-0.874270498752594
-0.8200224041938782
-0.7521523237228394
-0.6715489029884338
-0.57940274477005
-0.4772186577320099
-0.36680230498313904
-0.25021031498908997
-0.12968018651008606
-0.0075383856892585754
0.11391165107488632
0.2324903905391693
0.34623220562934875
0.45344704389572144
0.552762508392334
0.5625226497650146
0.6327256560325623
0.6978369355201721
0.7568091750144958
0.808637797832489
0.8523406386375427
0.8869506120681763
0.9114950299263
0.9249834418296814
0.9263998866081238
0.9147099852561951
0.8888852000236511
0.8479687571525574
0.7911650538444519
0.7179866433143616
0.6284299492835999
0.5231773257255554
0.40376603603363037
0.27268147468566895
0.1333083212375641
-0.010282285511493683
-0.15369346737861633
-0.29263219237327576
-0.42330047488212585
-0.5426685214042664
-0.6485826373100281
-0.7397269010543823
-0.8154894113540649
-0.8757738471031189
-0.9208210706710815
-0.951050341129303
-0.9669438004493713
-0.9689667820930481
-0.9575340151786804
-0.9329860806465149
-0.895612359046936
-0.8456807136535645
-0.7834907174110413
-0.709433913230896
-0.6240705251693726
-0.5282003283500671
-0.42292413115501404
-0.3096829652786255
-0.1902630627155304
-0.06675416976213455
0.05852916091680527
0.18316391110420227
0.3047405481338501
0.42098692059516907
0.5298590660095215
0.6296009421348572
0.7187629342079163
0.7961934208869934
0.860996663570404
0.9124919772148132
0.9501573443412781
0.9735859632492065
0.9824528098106384
0.976506233215332
0.9555712342262268
0.9195902347564697
0.8686749339103699
0.8031793832778931
0.7237715125083923
0.6314929127693176
0.5277945399284363
0.41452208161354065
0.2938603460788727
0.16823017597198486
0.04016120731830597
-0.0878385379910469
-0.213394433259964
-0.3343457281589508
-0.4487801492214203
-0.5550455451011658
-0.6517295241355896
-0.737632691860199
-0.8117434978485107
-0.8732120394706726
-0.9213284850120544
-0.9555091261863708
-0.9752863049507141
-0.9803066849708557
-0.9703355431556702
-0.9452690482139587
-0.9051653742790222
-0.8502764701843262
-0.781099259853363
-0.6984179615974426
-0.6033559441566467
-0.4973967373371124
-0.38238853216171265
-0.2605166733264923
-0.1342220902442932
-0.0061020627617836
0.12122946232557297
0.245274156332016
0.36377212405204773
0.4748007357120514
0.5768283009529114
0.5660057067871094
0.6394744515419006
0.7081601619720459
0.7708864212036133
0.8265004754066467
0.8738669753074646
0.9118510484695435
0.9393027424812317
0.9550483822822571
0.9578826427459717
0.946588933467865
0.919977605342865
0.8769717812538147
0.8167356848716736
0.7388566136360168
0.6435485482215881
0.5318717360496521
0.4058781564235687
0.268634557723999
0.12408148497343063
-0.023307688534259796
-0.16896113753318787
-0.308657705783844
-0.4388748109340668
-0.5569750666618347
-0.6612134575843811
-0.7506314516067505
-0.8248782753944397
-0.884017288684845
-0.9283568859100342
-0.9583160281181335
-0.9743260741233826
-0.976779043674469
-0.9659932255744934
-0.9422169327735901
-0.9056453108787537
-0.8564563393592834
-0.7948687672615051
-0.7212015390396118
-0.6359550952911377
-0.5398760437965393
-0.43402615189552307
-0.31982162594795227
-0.19903597235679626
-0.07376856356859207
0.0536392405629158
0.18071779608726501
0.30499473214149475
0.4241287112236023
0.5359959006309509
0.6387574076652527
0.7308798432350159
0.811120331287384
0.8784918189048767
0.9322141408920288
0.971666157245636
0.9963463544845581
1.005844235420227
0.9998406767845154
0.978128969669342
0.9406597018241882
0.8876119256019592
0.8194621801376343
0.7370569109916687
0.6416509747505188
0.5349061489105225
0.4188474416732788
0.2957700490951538
0.16812697052955627
0.03840946406126022
-0.0909539982676506
-0.21768614649772644
-0.33970755338668823
-0.45516327023506165
-0.5624321103096008
-0.6601116061210632
-0.7470008730888367
-0.8220822215080261
-0.8844955563545227
-0.9335212111473083
-0.9685644507408142
-0.9891406893730164
-0.994873583316803
-0.9854955077171326
-0.9608603119850159
-0.920968770980835
-0.8660070300102234
-0.7963923811912537
-0.7128306031227112
-0.6163756251335144
-0.5084649324417114
-0.3909463584423065
-0.2660534679889679
-0.13634344935417175
-0.004587776958942413
0.12637940049171448
0.2538158595561981
0.37523019313812256
0.4884989261627197
0.5919436812400818
0.5602020025253296
0.6361479163169861
0.7076571583747864
0.7734159827232361
0.8321180939674377
0.8824578523635864
0.923121452331543
0.9527735114097595
0.9700532555580139
0.9735834002494812
0.9619967937469482
0.9340064525604248
0.8885189890861511
0.8247947096824646
0.7426556944847107
0.6427012085914612
0.5264971256256104
0.39664748311042786
0.25672048330307007
0.11097537726163864
-0.03603736311197281
-0.1799308955669403
-0.3168678283691406
-0.4438079297542572
-0.5585744976997375
-0.6597938537597656
-0.7467511892318726
-0.8192104697227478
-0.8772459626197815
-0.9211075305938721
-0.9511134028434753
-0.9675784707069397
-0.970776379108429
-0.9609199166297913
-0.9381667971611023
-0.9026463031768799
-0.8544924855232239
-0.793904185295105
-0.7212029695510864
-0.6369004845619202
-0.5417643189430237
-0.4368652403354645
-0.32360947132110596
-0.20372918248176575
-0.07925192266702652
0.047575704753398895
0.17438244819641113
0.2987796664237976
0.41847002506256104
0.531329870223999
0.6354698538780212
0.7292638421058655
0.8113431334495544
0.8805721402168274
0.9360156655311584
0.9768989682197571
1.002581000328064
1.0125401020050049
1.0063904523849487
0.9839120507240295
0.9451162219047546
0.8903135657310486
0.8201857209205627
0.7358300089836121
0.638763964176178
0.5308715105056763
0.41430947184562683
0.2913947105407715
0.1644836664199829
0.0358867272734642
-0.09219125658273697
-0.2176746129989624
-0.3386371433734894
-0.4533086121082306
-0.5600853562355042
-0.6575389504432678
-0.7444170117378235
-0.8196403384208679
-0.8822959065437317
-0.9316242337226868
-0.967000424861908
-0.987925112247467
-0.9940165877342224
-0.9850043654441833
-0.9607444405555725
-0.9212310314178467
-0.8666355013847351
-0.7973480224609375
-0.7140352725982666
-0.6176955103874207
-0.509712278842926
-0.39188626408576965
-0.2664262652397156
-0.13590332865715027
-0.003142841160297394
0.12891986966133118
0.25740915536880493
0.37968289852142334
0.4934712052345276
0.5969719290733337
0.5454221367835999
0.6229156851768494
0.6963356137275696
0.7642297744750977
0.8251280188560486
0.8775442242622375
0.9199771285057068
0.9509034752845764
0.9687884449958801
0.97211092710495
0.9594200253486633
0.9294309020042419
0.8811718821525574
0.8141719698905945
0.7286646962165833
0.6257795095443726
0.5076407790184021
0.3773375451564789
0.23871281743049622
0.0960208997130394
-0.04648724943399429
-0.18494051694869995
-0.31610938906669617
-0.4375194013118744
-0.5474311113357544
-0.6447372436523438
-0.7288199067115784
-0.7994104027748108
-0.8564675450325012
-0.9000778198242188
-0.9303827881813049
-0.9475341439247131
-0.951663076877594
-0.9428759217262268
-0.9212592244148254
-0.8869076371192932
-0.8399644494056702
-0.7806686758995056
-0.7094111442565918
-0.6267923712730408
-0.5336586833000183
-0.4311346709728241
-0.3206261992454529
-0.20379650592803955
-0.08253071457147598
0.041124455630779266
0.16502252221107483
0.28698691725730896
0.40487736463546753
0.5166487097740173
0.6204019784927368
0.7144184708595276
0.7971778512001038
0.8673550486564636
0.9238093495368958
0.9655696749687195
0.991826057434082
1.0019375085830688
0.9954608678817749
0.9722055196762085
0.9323006272315979
0.8762639164924622
0.8050508499145508
0.7200571894645691
0.6230668425559998
0.5161442160606384
0.4014955163002014
0.2813431918621063
0.15782509744167328
0.03295491635799408
-0.09137409180402756
-0.21336522698402405
-0.33128616213798523
-0.4434690773487091
-0.5483183264732361
-0.644349992275238
-0.7302156090736389
-0.8047341108322144
-0.8668976426124573
-0.9158764481544495
-0.9510051608085632
-0.9717698693275452
-0.9778026938438416
-0.9688648581504822
-0.9448555111885071
-0.9058175683021545
-0.8519653081893921
-0.7837149500846863
-0.7017338871955872
-0.606995165348053
-0.5008241534233093
-0.38494017720222473
-0.2614581882953644
-0.13285496830940247
-0.0018846765160560608
0.12855401635169983
0.2555826008319855
0.3765091300010681
0.48898789286613464
0.5911237597465515
0.5221600532531738
0.6001370549201965
0.6744012832641602
0.7433562874794006
0.8053663372993469
0.8587614893913269
0.901851236820221
0.9329350590705872
0.9503328800201416
0.9524425268173218
0.9378235340118408
0.9053337574005127
0.8542923927307129