# vtk DataFile Version 3.0
2D PINN Solution
ASCII
DATASET STRUCTURED_GRID
DIMENSIONS 100 100 1
POINTS 10000 float
-1.0 -1.0 0.0
-0.9797979797979798 -1.0 0.0
-0.9595959595959596 -1.0 0.0
-0.9393939393939394 -1.0 0.0
-0.9191919191919192 -1.0 0.0
-0.898989898989899 -1.0 0.0
-0.8787878787878788 -1.0 0.0
-0.8585858585858586 -1.0 0.0
-0.8383838383838383 -1.0 0.0
-0.8181818181818181 -1.0 0.0
-0.797979797979798 -1.0 0.0
-0.7777777777777778 -1.0 0.0
-0.7575757575757576 -1.0 0.0
-0.7373737373737373 -1.0 0.0
-0.7171717171717171 -1.0 0.0
-0.696969696969697 -1.0 0.0
-0.6767676767676767 -1.0 0.0
-0.6565656565656566 -1.0 0.0
-0.6363636363636364 -1.0 0.0
-0.6161616161616161 -1.0 0.0
-0.5959595959595959 -1.0 0.0
-0.5757575757575757 -1.0 0.0
-0.5555555555555556 -1.0 0.0
-0.5353535353535352 -1.0 0.0
-0.5151515151515151 -1.0 0.0
-0.4949494949494949 -1.0 0.0
-0.4747474747474747 -1.0 0.0
-0.4545454545454545 -1.0 0.0
-0.43434343434343425 -1.0 0.0
-0.41414141414141414 -1.0 0.0
-0.3939393939393939 -1.0 0.0
-0.3737373737373737 -1.0 0.0
-0.3535353535353535 -1.0 0.0
-0.33333333333333326 -1.0 0.0
-0.31313131313131304 -1.0 0.0
-0.2929292929292928 -1.0 0.0
-0.2727272727272727 -1.0 0.0
-0.2525252525252525 -1.0 0.0
-0.23232323232323226 -1.0 0.0
-0.21212121212121204 -1.0 0.0
-0.19191919191919182 -1.0 0.0
-0.1717171717171716 -1.0 0.0
-0.1515151515151515 -1.0 0.0
-0.13131313131313127 -1.0 0.0
-0.11111111111111105 -1.0 0.0
-0.09090909090909083 -1.0 0.0
-0.07070707070707061 -1.0 0.0
-0.050505050505050386 -1.0 0.0
-0.030303030303030276 -1.0 0.0
-0.010101010101010055 -1.0 0.0
0.010101010101010166 -1.0 0.0
0.030303030303030498 -1.0 0.0
0.05050505050505061 -1.0 0.0
0.07070707070707072 -1.0 0.0
0.09090909090909105 -1.0 0.0
0.11111111111111116 -1.0 0.0
0.1313131313131315 -1.0 0.0
0.1515151515151516 -1.0 0.0
0.1717171717171717 -1.0 0.0
0.19191919191919204 -1.0 0.0
0.21212121212121215 -1.0 0.0
0.2323232323232325 -1.0 0.0
0.2525252525252526 -1.0 0.0
0.27272727272727293 -1.0 0.0
0.29292929292929304 -1.0 0.0
0.31313131313131315 -1.0 0.0
0.3333333333333335 -1.0 0.0
0.3535353535353536 -1.0 0.0
0.3737373737373739 -1.0 0.0
0.39393939393939403 -1.0 0.0
0.41414141414141437 -1.0 0.0
0.4343434343434345 -1.0 0.0
0.4545454545454546 -1.0 0.0
0.4747474747474749 -1.0 0.0
0.49494949494949503 -1.0 0.0
0.5151515151515154 -1.0 0.0
0.5353535353535355 -1.0 0.0
0.5555555555555556 -1.0 0.0
0.5757575757575759 -1.0 0.0
0.595959595959596 -1.0 0.0
0.6161616161616164 -1.0 0.0
0.6363636363636365 -1.0 0.0
0.6565656565656568 -1.0 0.0
0.6767676767676769 -1.0 0.0
0.696969696969697 -1.0 0.0
0.7171717171717173 -1.0 0.0
0.7373737373737375 -1.0 0.0
0.7575757575757578 -1.0 0.0
0.7777777777777779 -1.0 0.0
0.7979797979797982 -1.0 0.0
0.8181818181818183 -1.0 0.0
0.8383838383838385 -1.0 0.0
0.8585858585858588 -1.0 0.0
0.8787878787878789 -1.0 0.0
0.8989898989898992 -1.0 0.0
0.9191919191919193 -1.0 0.0
0.9393939393939394 -1.0 0.0
0.9595959595959598 -1.0 0.0
0.9797979797979799 -1.0 0.0
1.0 -1.0 0.0
-1.0 -0.9797979797979798 0.0
-0.9797979797979798 -0.9797979797979798 0.0
-0.9595959595959596 -0.9797979797979798 0.0
-0.9393939393939394 -0.9797979797979798 0.0
-0.9191919191919192 -0.9797979797979798 0.0
-0.898989898989899 -0.9797979797979798 0.0
-0.8787878787878788 -0.9797979797979798 0.0
-0.8585858585858586 -0.9797979797979798 0.0
-0.8383838383838383 -0.9797979797979798 0.0
-0.8181818181818181 -0.9797979797979798 0.0
-0.797979797979798 -0.9797979797979798 0.0
-0.7777777777777778 -0.9797979797979798 0.0
-0.7575757575757576 -0.9797979797979798 0.0
-0.7373737373737373 -0.9797979797979798 0.0
-0.7171717171717171 -0.9797979797979798 0.0
-0.696969696969697 -0.9797979797979798 0.0
-0.6767676767676767 -0.9797979797979798 0.0
-0.6565656565656566 -0.9797979797979798 0.0
-0.6363636363636364 -0.9797979797979798 0.0
-0.6161616161616161 -0.9797979797979798 0.0
-0.5959595959595959 -0.9797979797979798 0.0
-0.5757575757575757 -0.9797979797979798 0.0
-0.5555555555555556 -0.9797979797979798 0.0
-0.5353535353535352 -0.9797979797979798 0.0
-0.5151515151515151 -0.9797979797979798 0.0
-0.4949494949494949 -0.9797979797979798 0.0
-0.4747474747474747 -0.9797979797979798 0.0
-0.4545454545454545 -0.9797979797979798 0.0
-0.43434343434343425 -0.9797979797979798 0.0
-0.41414141414141414 -0.9797979797979798 0.0
-0.3939393939393939 -0.9797979797979798 0.0
-0.3737373737373737 -0.9797979797979798 0.0
-0.3535353535353535 -0.9797979797979798 0.0
-0.33333333333333326 -0.9797979797979798 0.0
-0.31313131313131304 -0.9797979797979798 0.0
-0.2929292929292928 -0.9797979797979798 0.0
-0.2727272727272727 -0.9797979797979798 0.0
-0.2525252525252525 -0.9797979797979798 0.0
-0.23232323232323226 -0.9797979797979798 0.0
-0.21212121212121204 -0.9797979797979798 0.0
-0.19191919191919182 -0.9797979797979798 0.0
-0.1717171717171716 -0.9797979797979798 0.0
-0.1515151515151515 -0.9797979797979798 0.0
-0.13131313131313127 -0.9797979797979798 0.0
-0.11111111111111105 -0.9797979797979798 0.0
-0.09090909090909083 -0.9797979797979798 0.0
-0.07070707070707061 -0.9797979797979798 0.0
-0.050505050505050386 -0.9797979797979798 0.0
-0.030303030303030276 -0.9797979797979798 0.0
-0.010101010101010055 -0.9797979797979798 0.0
0.010101010101010166 -0.9797979797979798 0.0
0.030303030303030498 -0.9797979797979798 0.0
0.05050505050505061 -0.9797979797979798 0.0
0.07070707070707072 -0.9797979797979798 0.0
0.09090909090909105 -0.9797979797979798 0.0
0.11111111111111116 -0.9797979797979798 0.0
0.1313131313131315 -0.9797979797979798 0.0
0.1515151515151516 -0.9797979797979798 0.0
0.1717171717171717 -0.9797979797979798 0.0
0.19191919191919204 -0.9797979797979798 0.0
0.21212121212121215 -0.9797979797979798 0.0
0.2323232323232325 -0.9797979797979798 0.0
0.2525252525252526 -0.9797979797979798 0.0
0.27272727272727293 -0.9797979797979798 0.0
0.29292929292929304 -0.9797979797979798 0.0
0.31313131313131315 -0.9797979797979798 0.0
0.3333333333333335 -0.9797979797979798 0.0
0.3535353535353536 -0.9797979797979798 0.0
0.3737373737373739 -0.9797979797979798 0.0
0.39393939393939403 -0.9797979797979798 0.0
0.41414141414141437 -0.9797979797979798 0.0
0.4343434343434345 -0.9797979797979798 0.0
0.4545454545454546 -0.9797979797979798 0.0
0.4747474747474749 -0.9797979797979798 0.0
0.49494949494949503 -0.9797979797979798 0.0
0.5151515151515154 -0.9797979797979798 0.0
0.5353535353535355 -0.9797979797979798 0.0
0.5555555555555556 -0.9797979797979798 0.0
0.5757575757575759 -0.9797979797979798 0.0
0.595959595959596 -0.9797979797979798 0.0
0.6161616161616164 -0.9797979797979798 0.0
0.6363636363636365 -0.9797979797979798 0.0
0.6565656565656568 -0.9797979797979798 0.0
0.6767676767676769 -0.9797979797979798 0.0
0.696969696969697 -0.9797979797979798 0.0
0.7171717171717173 -0.9797979797979798 0.0
0.7373737373737375 -0.9797979797979798 0.0
0.7575757575757578 -0.9797979797979798 0.0
0.7777777777777779 -0.9797979797979798 0.0
0.7979797979797982 -0.9797979797979798 0.0
0.8181818181818183 -0.9797979797979798 0.0
0.8383838383838385 -0.9797979797979798 0.0
0.8585858585858588 -0.9797979797979798 0.0
0.8787878787878789 -0.9797979797979798 0.0
0.8989898989898992 -0.9797979797979798 0.0
0.9191919191919193 -0.9797979797979798 0.0
0.9393939393939394 -0.9797979797979798 0.0
0.9595959595959598 -0.9797979797979798 0.0
0.9797979797979799 -0.9797979797979798 0.0
1.0 -0.9797979797979798 0.0
-1.0 -0.9595959595959596 0.0
-0.9797979797979798 -0.9595959595959596 0.0
-0.9595959595959596 -0.9595959595959596 0.0
-0.9393939393939394 -0.9595959595959596 0.0
-0.9191919191919192 -0.9595959595959596 0.0
-0.898989898989899 -0.9595959595959596 0.0
-0.8787878787878788 -0.9595959595959596 0.0
-0.8585858585858586 -0.9595959595959596 0.0
-0.8383838383838383 -0.9595959595959596 0.0
-0.8181818181818181 -0.9595959595959596 0.0
-0.797979797979798 -0.9595959595959596 0.0
-0.7777777777777778 -0.9595959595959596 0.0
-0.7575757575757576 -0.9595959595959596 0.0
-0.7373737373737373 -0.9595959595959596 0.0
-0.7171717171717171 -0.9595959595959596 0.0
-0.696969696969697 -0.9595959595959596 0.0
-0.6767676767676767 -0.9595959595959596 0.0
-0.6565656565656566 -0.9595959595959596 0.0
-0.6363636363636364 -0.9595959595959596 0.0
-0.6161616161616161 -0.9595959595959596 0.0
-0.5959595959595959 -0.9595959595959596 0.0
-0.5757575757575757 -0.9595959595959596 0.0
-0.5555555555555556 -0.9595959595959596 0.0
-0.5353535353535352 -0.9595959595959596 0.0
-0.5151515151515151 -0.9595959595959596 0.0
-0.4949494949494949 -0.9595959595959596 0.0
-0.4747474747474747 -0.9595959595959596 0.0
-0.4545454545454545 -0.9595959595959596 0.0
-0.43434343434343425 -0.9595959595959596 0.0
-0.41414141414141414 -0.9595959595959596 0.0
-0.3939393939393939 -0.9595959595959596 0.0
-0.3737373737373737 -0.9595959595959596 0.0
-0.3535353535353535 -0.9595959595959596 0.0
-0.33333333333333326 -0.9595959595959596 0.0
-0.31313131313131304 -0.9595959595959596 0.0
-0.2929292929292928 -0.9595959595959596 0.0
-0.2727272727272727 -0.9595959595959596 0.0
-0.2525252525252525 -0.9595959595959596 0.0
-0.23232323232323226 -0.9595959595959596 0.0
-0.21212121212121204 -0.9595959595959596 0.0
-0.19191919191919182 -0.9595959595959596 0.0
-0.1717171717171716 -0.9595959595959596 0.0
-0.1515151515151515 -0.9595959595959596 0.0
-0.13131313131313127 -0.9595959595959596 0.0
-0.11111111111111105 -0.9595959595959596 0.0
-0.09090909090909083 -0.9595959595959596 0.0
-0.07070707070707061 -0.9595959595959596 0.0
-0.050505050505050386 -0.9595959595959596 0.0
-0.030303030303030276 -0.9595959595959596 0.0
-0.010101010101010055 -0.9595959595959596 0.0
0.010101010101010166 -0.9595959595959596 0.0
0.030303030303030498 -0.9595959595959596 0.0
0.05050505050505061 -0.9595959595959596 0.0
0.07070707070707072 -0.9595959595959596 0.0
0.09090909090909105 -0.9595959595959596 0.0
0.11111111111111116 -0.9595959595959596 0.0
0.1313131313131315 -0.9595959595959596 0.0
0.1515151515151516 -0.9595959595959596 0.0
0.1717171717171717 -0.9595959595959596 0.0
0.19191919191919204 -0.9595959595959596 0.0
0.21212121212121215 -0.9595959595959596 0.0
[...]
POINT_DATA 10000
SCALARS u float 1
LOOKUP_TABLE default
0.3456472158432007
0.40575841069221497
0.4603031575679779
0.5078079700469971
0.546847939491272
0.5761900544166565
0.5949298739433289
0.6025715470314026
0.5990568995475769
0.5847399234771729
0.5603128671646118
0.5267238020896912
0.48507681488990784
0.4365592300891876
0.38236942887306213
0.32365527749061584
0.26147404313087463
0.19674083590507507
0.13020923733711243
0.06246192008256912
-0.0060670748353004456
-0.07501938194036484
-0.14400580525398254
-0.21248027682304382
-0.2796179950237274
-0.34424635767936707
-0.40486523509025574
-0.45975878834724426
-0.507178008556366
-0.5455605983734131
-0.5737051367759705
-0.590884268283844
-0.5968653559684753
-0.5918547511100769
-0.5764029026031494
-0.551283061504364
-0.5173904895782471
-0.4756581485271454
-0.4270099103450775
-0.37233680486679077
-0.3124978244304657
-0.2483280897140503
-0.18065130710601807
-0.11029274016618729
-0.03809771686792374
0.03504679352045059
0.10817550867795944
0.18022537231445312
0.25001823902130127
0.31629306077957153
0.37775918841362
0.4331817030906677
0.4814557433128357
0.5216706991195679
0.5531238913536072
0.5753070712089539
0.5878817439079285
0.5906457901000977
0.5835286378860474
0.5666091442108154
0.5401517748832703
0.5046511888504028
0.4608491361141205
0.40971818566322327
0.3523988723754883
0.2901080846786499
0.22404587268829346
0.15532803535461426
0.0849510058760643
0.013798944652080536
-0.057325102388858795
-0.12765958905220032
-0.19644343852996826
-0.26287826895713806
-0.3261047899723053
-0.3851928412914276
-0.4391467273235321
-0.48692455887794495
-0.5274824500083923
-0.5598280429840088
-0.5830835700035095
-0.596553385257721
-0.5997853875160217
-0.5926113128662109
-0.5751659870147705
-0.5478774905204773
-0.5114316940307617
-0.4667138159275055
-0.4147333800792694
-0.3565561771392822
-0.29322922229766846
-0.22573783993721008
-0.15496718883514404
-0.08169142156839371
-0.006580181419849396
0.0697794184088707
0.14686715602874756
0.22419032454490662
0.30126601457595825
0.3776024580001831
0.40370824933052063
0.47514835000038147
0.5393754839897156
0.5946230292320251
0.639322817325592
0.6722635626792908
0.6926900744438171
0.7003417015075684
0.6954205632209778
0.6785194277763367
0.6505061388015747
0.6124236583709717
0.5653932690620422
0.5105513334274292
0.4489986002445221
0.38177669048309326
0.3098523020744324
0.23410683870315552
0.15534374117851257
0.07430186122655869
-0.008298344910144806
-0.09168858081102371
-0.17496731877326965
-0.2570103108882904
-0.33642342686653137
-0.41155126690864563
-0.48058071732521057
-0.5416970252990723
-0.5932760834693909
-0.6340471506118774
-0.6631898880004883
-0.6803575158119202
-0.6856225728988647
-0.6793813705444336
-0.6622333526611328
-0.6348810791969299
-0.5980488657951355
-0.5524367690086365
-0.4987131655216217
-0.4375390112400055
-0.36960747838020325
-0.2956947088241577
-0.21669510006904602
-0.13364604115486145
-0.04773668199777603
0.03969644755125046
0.12718236446380615
0.21314555406570435
0.2959536612033844
0.373987078666687
0.4457195997238159
0.5097984075546265
0.565100371837616
0.6107513904571533
0.6461129784584045
0.6707503795623779
0.684387743473053
0.6868775486946106
0.678194522857666
0.6584469079971313
0.6279150247573853
0.5870941281318665
0.5367295742034912
0.477817565202713
0.41157469153404236
0.33935344219207764
0.26255011558532715
0.1825070083141327
0.1004522517323494
0.017478980123996735
-0.06543988734483719
-0.1474032700061798
-0.2275381088256836
-0.30494293570518494
-0.37865492701530457
-0.44762423634529114
-0.5107166171073914
-0.566730797290802
-0.6144437789916992
-0.6526713371276855
-0.6803461313247681
-0.6965948343276978
-0.7008138298988342
-0.69272780418396
-0.6724204421043396
-0.6403405666351318
-0.5972703099250793
-0.5442675352096558
-0.48259326815605164
-0.4136142432689667
-0.3387276232242584
-0.25927844643592834
-0.17650991678237915
-0.09153162688016891
-0.005310334265232086
0.08131944388151169
0.16763171553611755
0.2529829442501068
0.33678337931632996
0.41848042607307434
0.4566967785358429
0.5376511216163635
0.6097080707550049
0.6709722280502319
0.7198970317840576
0.7554134726524353
0.7769860029220581
0.7845937609672546
0.7786577939987183
0.759925901889801
0.7293479442596436
0.6879686117172241
0.6368402242660522
0.5769720673561096
0.5093114376068115
0.43474680185317993
0.35412776470184326
0.26829978823661804
0.17813971638679504
0.08460550755262375
-0.01121581345796585
-0.10805287212133408
-0.2044125199317932
-0.2985646724700928
-0.3885851800441742
-0.47245243191719055
-0.5482041239738464
-0.6141031384468079
-0.668781578540802
-0.7113277316093445
-0.7412974834442139
-0.7586572766304016
-0.7636865377426147
-0.756863534450531
-0.7387503981590271
-0.7099114656448364
-0.6708614230155945
-0.6220512986183167
-0.5639008283615112
-0.496858686208725
-0.42148488759994507
-0.3385336697101593
-0.2490140199661255
-0.15422004461288452
-0.055724091827869415
0.044669292867183685
0.14498862624168396
0.243190199136734
0.33726009726524353
0.4253176152706146
0.5057033896446228
0.577032208442688
0.638213574886322
0.6884353756904602
0.7271267771720886
0.7539061903953552
0.7685425877571106
0.7709323763847351
0.7610856294631958
0.7391408085823059
0.7053928971290588
0.6603291630744934
0.6046653389930725
0.5393692851066589
0.46564599871635437
0.3848993480205536
0.29864180088043213
0.2084040343761444
0.11564349383115768
0.02169639617204666
-0.07223434001207352
-0.16504907608032227
-0.255703866481781
-0.3431535065174103
-0.4263056218624115
-0.5039947032928467
-0.5749695897102356
-0.6379222273826599
-0.6915237903594971
-0.7344898581504822
-0.7656571865081787
-0.784061849117279
-0.7890190482139587
-0.7801790833473206
-0.757571816444397
-0.7216203808784485
-0.6731259226799011
-0.6132219433784485
-0.5433064103126526
-0.4649604856967926
-0.3798482120037079
-0.2896290719509125
-0.19588854908943176
-0.10007522255182266
-0.0034781470894813538
0.09278253465890884
0.1877422332763672
0.28057384490966797
0.3705606758594513
0.4570755958557129
0.5032828450202942
0.5916799902915955
0.6696099042892456
0.735207736492157
0.7870795130729675
0.8243728280067444
0.8467817902565002
0.8544874787330627
0.8480506539344788
0.828286349773407
0.7961378693580627
0.7525733113288879
0.6985116004943848
0.6347930431365967
0.5621773600578308
0.4813823103904724
0.3931431174278259
0.2982844114303589
0.19780150055885315
0.09292688220739365
-0.014814473688602448
-0.12359512597322464
-0.23131003975868225
-0.33566901087760925
-0.43432798981666565
-0.5250564217567444
-0.6059120297431946
-0.6753644943237305
-0.7323750257492065
-0.7763857245445251
-0.807262659072876
-0.825186014175415
-0.8305350542068481
-0.8237691521644592
-0.8053410649299622
-0.7756306529045105
-0.7349240183830261
-0.6834337711334229
-0.6213614344596863
-0.5489897131919861
-0.466803640127182
-0.3755968511104584
-0.276548832654953
-0.17125073075294495
-0.06166795641183853
0.049944423139095306
0.1611744463443756
0.2695973217487335
0.3729296028614044
0.46913185715675354
0.5564954280853271
0.6336581110954285
0.6995880007743835
0.7535354495048523
0.7949802279472351
0.8235815167427063
0.8391428589820862
0.8415907025337219
0.8309687972068787
0.807447612285614
0.7713338136672974
0.7231031656265259
0.6634286046028137
0.5932049751281738
0.5135695338249207
0.4258855879306793
0.33169621229171753
0.2326485514640808
0.13039907813072205
0.02653791755437851
-0.07745460420846939
-0.18021324276924133
-0.28045544028282166
-0.37693601846694946
-0.46840229630470276
-0.5535604357719421
-0.6310727596282959
-0.6995692849159241
-0.7576881051063538
-0.8041372895240784
-0.8377542495727539
-0.8575798273086548
-0.8629181385040283
-0.8533963561058044
-0.8290010094642639
-0.7901020050048828
-0.7374533414840698
-0.6721722483634949
-0.5956897139549255
-0.5096846222877502
-0.4159952700138092
-0.31652602553367615
-0.21315795183181763
-0.10767140239477158
-0.001687474548816681
0.10336028784513474
0.2062375843524933
0.3058994710445404
0.4014744460582733
0.4922432005405426
0.5420481562614441
0.6357257962226868
0.7176307439804077
0.7860633730888367
0.8398553729057312
0.8783861994743347
0.9015435576438904
0.9096335768699646
0.9032676815986633
0.8832412362098694
0.8504137396812439
0.8056201934814453
0.7496121525764465
0.6830403804779053
0.6064775586128235
0.5204868316650391
0.42571693658828735
0.3230178654193878
0.21355271339416504
0.09888427704572678
-0.01899225264787674
-0.13769322633743286
-0.2545675039291382
-0.36688193678855896
-0.4720357358455658
-0.5677605867385864
-0.6522615551948547
-0.7242907881736755
-0.7831308245658875
-0.8285173773765564
-0.8605260252952576
-0.8794422745704651
-0.8856413960456848
-0.8794872760772705
-0.8612653017044067
-0.8311469554901123
-0.7891944050788879
-0.73540860414505
-0.6698235273361206
-0.592630922794342
-0.5043178200721741
-0.4057930111885071
-0.2984623610973358
-0.1842341423034668
-0.06544522196054459
0.05527257174253464
0.17517367005348206
0.2915846109390259
0.40206271409988403
0.504510760307312
0.5972200036048889
0.6788666248321533
0.7484695315361023
0.8053233623504639
0.8489446043968201
0.8790225386619568
0.8953882455825806
0.8980013728141785
0.8869408965110779
0.8624047040939331
0.8247153162956238
0.7743342518806458
0.711881697177887
0.6381670832633972
0.5542163848876953
0.46128925681114197
0.3608757555484772
0.2546510100364685
0.14440849423408508
0.03196876496076584
-0.08089057356119156
-0.19248417019844055
-0.30122438073158264
-0.4056061804294586
-0.5041719675064087
-0.5954925417900085
-0.6781542301177979
-0.750774085521698
-0.8120272755622864
-0.8606929183006287
-0.8956990838050842
-0.9161731004714966
-0.9214831590652466
-0.9112815260887146
-0.885534942150116
-0.8445515632629395
-0.7889975905418396
-0.7199003100395203
-0.6386282444000244
-0.5468512773513794
-0.4464764893054962
-0.33956149220466614
-0.2282203733921051
-0.11452176421880722
-0.0004143044352531433
0.11234680563211441
0.2222282588481903
0.3279380798339844
0.42842355370521545
0.522851288318634
0.5716357827186584
0.6684948801994324
0.752673864364624
0.8227106928825378
0.8776785731315613
0.917151153087616
0.9411355257034302
0.949973464012146
0.9442394375801086
0.9246274828910828
0.8918574452400208
0.8465985655784607
0.7894201874732971
0.7207944989204407
0.6411396861076355
0.5509108901023865
0.45073261857032776
0.3415454030036926
0.22473841905593872
0.10223539918661118
-0.02351555973291397
-0.14965537190437317
-0.27312567830085754
-0.3909342586994171
-0.5004063248634338
-0.5993762016296387
-0.686278760433197
-0.7601415514945984
-0.8205059170722961
-0.8673016428947449
-0.9007011651992798
-0.9209914803504944
-0.9284613728523254
-0.9233231544494629
-0.9056626558303833
-0.8754385709762573
-0.8325114250183105
-0.7767207026481628
-0.7080056071281433
-0.6265511512756348
-0.532940685749054
-0.4282712936401367
-0.3142153322696686
-0.19298511743545532
-0.06721843034029007
0.06019670516252518
0.1863301694393158
0.30839890241622925
0.4239170551300049
0.5307846665382385
0.6273098587989807
0.7121921181678772
0.7844669222831726
0.8434473276138306
0.888668954372406
0.9198482632637024
0.9368492960929871
0.939670205116272
0.9284293055534363
0.9033543467521667
0.8647832274436951
0.813161313533783
0.7490594983100891
0.6731942892074585
0.5864685773849487
0.49000632762908936
0.3851781487464905
0.27361252903938293
0.15715113282203674
0.03778628259897232
-0.08243066817522049
-0.20147234201431274
-0.3174024820327759
-0.4283963441848755
-0.5327526926994324
-0.6288838386535645
-0.7153143286705017
-0.790681004524231
-0.8537516593933105
-0.9034443497657776
-0.9388452172279358
-0.9592377543449402
-0.9641125798225403
-0.9531920552253723
-0.9264536499977112
-0.8841522336006165
-0.8268503546714783
-0.7554400563240051
-0.671155571937561
-0.5755693316459656
-0.4705536663532257
-0.358219176530838
-0.24082395434379578
-0.12066600471735
2.0198523998260498e-05
0.11916381865739822
0.2349250614643097
0.3457469642162323
0.45036596059799194
0.5478073954582214
0.5909058451652527
0.6890395283699036
0.7740620374679565
0.8447635769844055
0.900418221950531
0.9407202005386353
0.9657056331634521
0.9756630659103394
0.9710456132888794
0.9523897767066956
0.920233428478241
0.8750619888305664
0.8172776103019714
0.7472115159034729
0.6651872396469116
0.5716332793235779
0.467239111661911
0.3531138300895691
0.23092174530029297
0.10293751209974289
-0.02802220731973648
-0.15877747535705566
-0.286068856716156
-0.4068545997142792
-0.5185555219650269
-0.6192037463188171
-0.7074692249298096
-0.7826000452041626
-0.8442926406860352
-0.8925507664680481
-0.9275372624397278
-0.9494525790214539
-0.9584406018257141
-0.9545244574546814
-0.9375906586647034
-0.907401442527771
-0.8636594414710999
-0.8061111569404602
-0.734691321849823
-0.6496747136116028
-0.5518258810043335
-0.4424905478954315
-0.32360735535621643
-0.19763514399528503
-0.067391537129879
0.06413494795560837
0.19398698210716248
0.31940367817878723
0.4379381537437439
0.5475144982337952
0.6464473009109497
0.7334179282188416
0.8074404001235962
0.8678142428398132
0.914077639579773
0.9459717869758606
0.9634028077125549
0.9664162993431091
0.9551753997802734
0.929942786693573
0.8910683989524841
0.8389868140220642
0.7742217183113098
0.6974072456359863
0.6093284487724304
0.5109666585922241
0.4035499393939972
0.28859591484069824
0.1679181456565857
0.04359415918588638
-0.08211948722600937
-0.20688685774803162
-0.3284119665622711
-0.44452419877052307
-0.5532428622245789
-0.6528010368347168
-0.7416566014289856
-0.8184893727302551
-0.8821930885314941
-0.9318668842315674
-0.966805636882782
-0.986488401889801
-0.9905722737312317
-0.9788889288902283
-0.9514551758766174
-0.9084941744804382
-0.8504699468612671
-0.7781239151954651
-0.6925198435783386
-0.5950635075569153
-0.4875076115131378
-0.3719170391559601
-0.2505950629711151
-0.12598389387130737
-0.000538654625415802
0.12339314073324203
0.24368351697921753
0.3584999740123749
0.46634843945503235
0.5660901665687561
0.5990785956382751
0.6968420147895813
0.7815621495246887
0.8522407412528992
0.908277690410614
0.9493988156318665
0.9755765795707703
0.9869644045829773
0.9838324785232544
0.966508686542511
0.9353293776512146
0.8906025886535645
0.8325935006141663
0.761555016040802
0.6778053045272827
0.581853449344635
0.47455599904060364
0.35726985335350037
0.2319534718990326
0.10116728395223618
-0.03205118328332901
-0.1644231379032135
-0.29272064566612244
-0.41405296325683594
-0.5260633826255798
-0.6270155310630798
-0.71577388048172
-0.7917049527168274
-0.8545451760292053
-0.9042539596557617
-0.9408887028694153
-0.9644955992698669
-0.9750345349311829
-0.9723353981971741
-0.9560988545417786
-0.9259376525878906
-0.8814659714698792
-0.8224263191223145
-0.7488446831703186
-0.6611820459365845
-0.5604506731033325
-0.4482581317424774
-0.32676559686660767
-0.19856375455856323
-0.06649961322546005
0.06649991124868393
0.19759556651115417
0.3241462707519531
0.4437904357910156
0.5544795989990234
0.6545059680938721
0.7424962520599365
0.8174037337303162
0.8784831166267395
0.9252621531486511
0.9575005173683167
0.9751476645469666
0.9783033132553101
0.9671818017959595
0.9420835971832275
0.9033758044242859
0.8514823317527771
0.7868911623954773
0.7101711630821228
0.6220078468322754
0.5232576727867126
0.41500893235206604
0.2986469566822052
0.1758975386619568
0.04883012920618057
-0.08018695563077927
-0.20859846472740173
-0.33379921317100525
-0.45328906178474426
-0.564795970916748
-0.6663556694984436
-0.7563477754592896
-0.8334919214248657
-0.8968142867088318
-0.9456132054328918
-0.979409396648407
-0.9979000687599182
-1.000930905342102
-0.98846834897995
-0.9605974555015564
-0.9175356030464172
-0.8596713542938232
-0.7876077890396118
-0.7022262811660767
-0.6047362089157104
-0.496707946062088
-0.3800734579563141
-0.2570858895778656
-0.1302248239517212
-0.0020800456404685974
0.12479683011770248
0.2480260729789734
0.36551836133003235
0.475545197725296
0.5767768025398254
0.5958248376846313
0.6918458938598633
0.7753581404685974
0.8455018401145935
0.9017139077186584
0.9436562657356262
0.9711595177650452
0.9841763973236084
0.9827433824539185
0.9669564366340637
0.9369427561759949
0.8928529620170593
0.834868848323822
0.7632489800453186
0.6784167885780334
0.5810793042182922
0.47236570715904236
0.35393235087394714
0.2280026078224182
0.09730144590139389
-0.035118021070957184
-0.1661148965358734
-0.292721152305603
-0.412356972694397
-0.5229591131210327
-0.6230069994926453
-0.7114816308021545
-0.7877607345581055
-0.8515006899833679
-0.9025170207023621
-0.9406823515892029
-0.9658381342887878
-0.9777442812919617
-0.9760484099388123
-0.9603120684623718
-0.9300681948661804
-0.8849338889122009
-0.8247509598731995
-0.7497391700744629
-0.6606163382530212
-0.5586691498756409
-0.44572940468788147
-0.32407620549201965
-0.1962873637676239
-0.06507856398820877
0.06683110445737839
0.19681861996650696
0.3224215805530548
0.4413781464099884
0.5516616702079773
0.6515176892280579
0.7394920587539673
0.8144519925117493
0.875588595867157
0.9223986268043518
0.9546477198600769
0.9723207950592041
0.9755678772926331
0.9646540880203247
0.9399197101593018
0.9017531275749207
0.8505811095237732
0.7868672013282776
0.7111347317695618
0.6239998936653137
0.526226282119751
0.4187864363193512
0.3029406666755676
0.18029740452766418
0.05285268276929855
-0.07702744752168655
-0.2066841721534729
-0.33331963419914246
-0.45417729020118713
-0.5667248964309692
-0.6688021421432495
-0.75868821144104
-0.8351166844367981
-0.8972272276878357
-0.9445002675056458
-0.9766709208488464
-0.9936549067497253
-0.995489776134491
-0.9822884202003479
-0.9542273879051208
-0.9115495681762695
-0.8545975685119629
-0.7838666439056396
-0.7000739574432373
-0.6042268872261047
-0.49768170714378357
-0.38217893242836
-0.2598269581794739
-0.1330430805683136
-0.0044412389397621155
0.12331455200910568
0.24766933917999268
0.36631345748901367
0.4772959351539612
0.5790852904319763
0.5813013315200806
0.6744399666786194
0.7560005784034729
0.8251765370368958
0.8813527226448059
0.9240490198135376
0.9528906345367432
0.9675800800323486
0.9678928256034851
0.9536789655685425
0.9248706698417664
0.8815004229545593
0.8237356543540955
0.7519410252571106
0.6667611002922058
0.5692158341407776
0.4607803523540497
0.3434172570705414
0.21953129768371582
0.09184249490499496
-0.036798156797885895
-0.1636132299900055
-0.2860713601112366
-0.4020056426525116
-0.5096666216850281
-0.6077083349227905
-0.6951377987861633
-0.7712439298629761
-0.8355048894882202
-0.8875100612640381
-0.926886796951294
-0.9532449841499329
-0.9661386609077454
-0.9650722146034241
-0.9495291113853455
-0.9190559983253479
-0.8733823299407959
-0.8125590682029724
-0.7370798587799072
-0.6479615569114685
-0.5467325448989868
-0.4353538453578949
-0.31608232855796814
-0.19132423400878906
-0.06352663785219193
0.06489545851945877
0.1915917694568634
0.3142955005168915
0.4308450222015381
0.5392326712608337
0.6376520991325378
0.7245644927024841
0.7987434267997742
0.8593056797981262
0.9056989550590515
0.9376731514930725
0.9552273154258728
0.9585432410240173
0.9479271769523621
0.923758327960968
0.8864526152610779
0.8364502787590027
0.7742117047309875
0.7002394199371338
0.6151151061058044
0.5195441246032715
0.4144211709499359
0.3009071946144104
0.1804933249950409
0.055058158934116364
-0.07312118262052536
-0.20142021775245667
-0.32699480652809143
-0.4469616115093231
-0.5586216449737549
-0.6596438884735107
-0.7481973767280579
-0.8229885101318359
-0.8832199573516846
-0.9285075068473816
-0.9587631821632385
-0.9740955233573914
-0.9747191071510315
-0.9608981013298035
-0.9329123497009277
-0.891057014465332
-0.8356673717498779
-0.7671698927879333
-0.6861515045166016
-0.593438446521759
-0.49016979336738586
-0.3778568208217621
-0.2583996057510376
-0.13405337929725647
-0.00734429806470871
0.11906320601701736
0.24253132939338684
0.36060449481010437
0.4711419641971588
0.5724069476127625
0.5561216473579407
0.645402729511261
0.7243340611457825
0.7920892834663391
0.8479284048080444
0.8911733031272888
0.921194851398468
0.9374188780784607
0.9393497109413147
0.9265995621681213
0.8989353179931641
0.8563271164894104
0.7990142703056335
0.7275709509849548