# vtk DataFile Version 3.0
2D PINN Solution
ASCII
DATASET STRUCTURED_GRID
DIMENSIONS 100 100 1
POINTS 10000 float
-1.0 -1.0 0.0
-0.9797979797979798 -1.0 0.0
-0.9595959595959596 -1.0 0.0
-0.9393939393939394 -1.0 0.0
-0.9191919191919192 -1.0 0.0
-0.898989898989899 -1.0 0.0
-0.8787878787878788 -1.0 0.0
-0.8585858585858586 -1.0 0.0
-0.8383838383838383 -1.0 0.0
-0.8181818181818181 -1.0 0.0
-0.797979797979798 -1.0 0.0
-0.7777777777777778 -1.0 0.0
-0.7575757575757576 -1.0 0.0
-0.7373737373737373 -1.0 0.0
-0.7171717171717171 -1.0 0.0
-0.696969696969697 -1.0 0.0
-0.6767676767676767 -1.0 0.0
-0.6565656565656566 -1.0 0.0
-0.6363636363636364 -1.0 0.0
-0.6161616161616161 -1.0 0.0
-0.5959595959595959 -1.0 0.0
-0.5757575757575757 -1.0 0.0
-0.5555555555555556 -1.0 0.0
-0.5353535353535352 -1.0 0.0
-0.5151515151515151 -1.0 0.0
-0.4949494949494949 -1.0 0.0
-0.4747474747474747 -1.0 0.0
-0.4545454545454545 -1.0 0.0
-0.43434343434343425 -1.0 0.0
-0.41414141414141414 -1.0 0.0
-0.3939393939393939 -1.0 0.0
-0.3737373737373737 -1.0 0.0
-0.3535353535353535 -1.0 0.0
-0.33333333333333326 -1.0 0.0
-0.31313131313131304 -1.0 0.0
-0.2929292929292928 -1.0 0.0
-0.2727272727272727 -1.0 0.0
-0.2525252525252525 -1.0 0.0
-0.23232323232323226 -1.0 0.0
-0.21212121212121204 -1.0 0.0
-0.19191919191919182 -1.0 0.0
-0.1717171717171716 -1.0 0.0
-0.1515151515151515 -1.0 0.0
-0.13131313131313127 -1.0 0.0
-0.11111111111111105 -1.0 0.0
-0.09090909090909083 -1.0 0.0
-0.07070707070707061 -1.0 0.0
-0.050505050505050386 -1.0 0.0
-0.030303030303030276 -1.0 0.0
-0.010101010101010055 -1.0 0.0
0.010101010101010166 -1.0 0.0
0.030303030303030498 -1.0 0.0
0.05050505050505061 -1.0 0.0
0.07070707070707072 -1.0 0.0
0.09090909090909105 -1.0 0.0
0.11111111111111116 -1.0 0.0
0.1313131313131315 -1.0 0.0
0.1515151515151516 -1.0 0.0
0.1717171717171717 -1.0 0.0
0.19191919191919204 -1.0 0.0
0.21212121212121215 -1.0 0.0
0.2323232323232325 -1.0 0.0
0.2525252525252526 -1.0 0.0
0.27272727272727293 -1.0 0.0
0.29292929292929304 -1.0 0.0
0.31313131313131315 -1.0 0.0
0.3333333333333335 -1.0 0.0
0.3535353535353536 -1.0 0.0
0.3737373737373739 -1.0 0.0
0.39393939393939403 -1.0 0.0
0.41414141414141437 -1.0 0.0
0.4343434343434345 -1.0 0.0
0.4545454545454546 -1.0 0.0
0.4747474747474749 -1.0 0.0
0.49494949494949503 -1.0 0.0
0.5151515151515154 -1.0 0.0
0.5353535353535355 -1.0 0.0
0.5555555555555556 -1.0 0.0
0.5757575757575759 -1.0 0.0
0.595959595959596 -1.0 0.0
0.6161616161616164 -1.0 0.0
0.6363636363636365 -1.0 0.0
0.6565656565656568 -1.0 0.0
0.6767676767676769 -1.0 0.0
0.696969696969697 -1.0 0.0
0.7171717171717173 -1.0 0.0
0.7373737373737375 -1.0 0.0
0.7575757575757578 -1.0 0.0
0.7777777777777779 -1.0 0.0
0.7979797979797982 -1.0 0.0
0.8181818181818183 -1.0 0.0
0.8383838383838385 -1.0 0.0
0.8585858585858588 -1.0 0.0
0.8787878787878789 -1.0 0.0
0.8989898989898992 -1.0 0.0
0.9191919191919193 -1.0 0.0
0.9393939393939394 -1.0 0.0
0.9595959595959598 -1.0 0.0
0.9797979797979799 -1.0 0.0
1.0 -1.0 0.0
-1.0 -0.9797979797979798 0.0
-0.9797979797979798 -0.9797979797979798 0.0
-0.9595959595959596 -0.9797979797979798 0.0
-0.9393939393939394 -0.9797979797979798 0.0
-0.9191919191919192 -0.9797979797979798 0.0
-0.898989898989899 -0.9797979797979798 0.0
-0.8787878787878788 -0.9797979797979798 0.0
-0.8585858585858586 -0.9797979797979798 0.0
-0.8383838383838383 -0.9797979797979798 0.0
-0.8181818181818181 -0.9797979797979798 0.0
-0.797979797979798 -0.9797979797979798 0.0
-0.7777777777777778 -0.9797979797979798 0.0
-0.7575757575757576 -0.9797979797979798 0.0
-0.7373737373737373 -0.9797979797979798 0.0
-0.7171717171717171 -0.9797979797979798 0.0
-0.696969696969697 -0.9797979797979798 0.0
-0.6767676767676767 -0.9797979797979798 0.0
-0.6565656565656566 -0.9797979797979798 0.0
-0.6363636363636364 -0.9797979797979798 0.0
-0.6161616161616161 -0.9797979797979798 0.0
-0.5959595959595959 -0.9797979797979798 0.0
-0.5757575757575757 -0.9797979797979798 0.0
-0.5555555555555556 -0.9797979797979798 0.0
-0.5353535353535352 -0.9797979797979798 0.0
-0.5151515151515151 -0.9797979797979798 0.0
-0.4949494949494949 -0.9797979797979798 0.0
-0.4747474747474747 -0.9797979797979798 0.0
-0.4545454545454545 -0.9797979797979798 0.0
-0.43434343434343425 -0.9797979797979798 0.0
-0.41414141414141414 -0.9797979797979798 0.0
-0.3939393939393939 -0.9797979797979798 0.0
-0.3737373737373737 -0.9797979797979798 0.0
-0.3535353535353535 -0.9797979797979798 0.0
-0.33333333333333326 -0.9797979797979798 0.0
-0.31313131313131304 -0.9797979797979798 0.0
-0.2929292929292928 -0.9797979797979798 0.0
-0.2727272727272727 -0.9797979797979798 0.0
-0.2525252525252525 -0.9797979797979798 0.0
-0.23232323232323226 -0.9797979797979798 0.0
-0.21212121212121204 -0.9797979797979798 0.0
-0.19191919191919182 -0.9797979797979798 0.0
-0.1717171717171716 -0.9797979797979798 0.0
-0.1515151515151515 -0.9797979797979798 0.0
-0.13131313131313127 -0.9797979797979798 0.0
-0.11111111111111105 -0.9797979797979798 0.0
-0.09090909090909083 -0.9797979797979798 0.0
-0.07070707070707061 -0.9797979797979798 0.0
-0.050505050505050386 -0.9797979797979798 0.0
-0.030303030303030276 -0.9797979797979798 0.0
-0.010101010101010055 -0.9797979797979798 0.0
0.010101010101010166 -0.9797979797979798 0.0
0.030303030303030498 -0.9797979797979798 0.0
0.05050505050505061 -0.9797979797979798 0.0
0.07070707070707072 -0.9797979797979798 0.0
0.09090909090909105 -0.9797979797979798 0.0
0.11111111111111116 -0.9797979797979798 0.0
0.1313131313131315 -0.9797979797979798 0.0
0.1515151515151516 -0.9797979797979798 0.0
0.1717171717171717 -0.9797979797979798 0.0
0.19191919191919204 -0.9797979797979798 0.0
0.21212121212121215 -0.9797979797979798 0.0
0.2323232323232325 -0.9797979797979798 0.0
0.2525252525252526 -0.9797979797979798 0.0
0.27272727272727293 -0.9797979797979798 0.0
0.29292929292929304 -0.9797979797979798 0.0
0.31313131313131315 -0.9797979797979798 0.0
0.3333333333333335 -0.9797979797979798 0.0
0.3535353535353536 -0.9797979797979798 0.0
0.3737373737373739 -0.9797979797979798 0.0
0.39393939393939403 -0.9797979797979798 0.0
0.41414141414141437 -0.9797979797979798 0.0
0.4343434343434345 -0.9797979797979798 0.0
0.4545454545454546 -0.9797979797979798 0.0
0.4747474747474749 -0.9797979797979798 0.0
0.49494949494949503 -0.9797979797979798 0.0
0.5151515151515154 -0.9797979797979798 0.0
0.5353535353535355 -0.9797979797979798 0.0
0.5555555555555556 -0.9797979797979798 0.0
0.5757575757575759 -0.9797979797979798 0.0
0.595959595959596 -0.9797979797979798 0.0
0.6161616161616164 -0.9797979797979798 0.0
0.6363636363636365 -0.9797979797979798 0.0
0.6565656565656568 -0.9797979797979798 0.0
0.6767676767676769 -0.9797979797979798 0.0
0.696969696969697 -0.9797979797979798 0.0
0.7171717171717173 -0.9797979797979798 0.0
0.7373737373737375 -0.9797979797979798 0.0
0.7575757575757578 -0.9797979797979798 0.0
0.7777777777777779 -0.9797979797979798 0.0
0.7979797979797982 -0.9797979797979798 0.0
0.8181818181818183 -0.9797979797979798 0.0
0.8383838383838385 -0.9797979797979798 0.0
0.8585858585858588 -0.9797979797979798 0.0
0.8787878787878789 -0.9797979797979798 0.0
0.8989898989898992 -0.9797979797979798 0.0
0.9191919191919193 -0.9797979797979798 0.0
0.9393939393939394 -0.9797979797979798 0.0
0.9595959595959598 -0.9797979797979798 0.0
0.9797979797979799 -0.9797979797979798 0.0
1.0 -0.9797979797979798 0.0
-1.0 -0.9595959595959596 0.0
-0.9797979797979798 -0.9595959595959596 0.0
-0.9595959595959596 -0.9595959595959596 0.0
-0.9393939393939394 -0.9595959595959596 0.0
-0.9191919191919192 -0.9595959595959596 0.0
-0.898989898989899 -0.9595959595959596 0.0
-0.8787878787878788 -0.9595959595959596 0.0
-0.8585858585858586 -0.9595959595959596 0.0
-0.8383838383838383 -0.9595959595959596 0.0
-0.8181818181818181 -0.9595959595959596 0.0
-0.797979797979798 -0.9595959595959596 0.0
-0.7777777777777778 -0.9595959595959596 0.0
-0.7575757575757576 -0.9595959595959596 0.0
-0.7373737373737373 -0.9595959595959596 0.0
-0.7171717171717171 -0.9595959595959596 0.0
-0.696969696969697 -0.9595959595959596 0.0
-0.6767676767676767 -0.9595959595959596 0.0
-0.6565656565656566 -0.9595959595959596 0.0
-0.6363636363636364 -0.9595959595959596 0.0
-0.6161616161616161 -0.9595959595959596 0.0
-0.5959595959595959 -0.9595959595959596 0.0
-0.5757575757575757 -0.9595959595959596 0.0
-0.5555555555555556 -0.9595959595959596 0.0
-0.5353535353535352 -0.9595959595959596 0.0
-0.5151515151515151 -0.9595959595959596 0.0
-0.4949494949494949 -0.9595959595959596 0.0
-0.4747474747474747 -0.9595959595959596 0.0
-0.4545454545454545 -0.9595959595959596 0.0
-0.43434343434343425 -0.9595959595959596 0.0
-0.41414141414141414 -0.9595959595959596 0.0
-0.3939393939393939 -0.9595959595959596 0.0
-0.3737373737373737 -0.9595959595959596 0.0
-0.3535353535353535 -0.9595959595959596 0.0
-0.33333333333333326 -0.9595959595959596 0.0
-0.31313131313131304 -0.9595959595959596 0.0
-0.2929292929292928 -0.9595959595959596 0.0
-0.2727272727272727 -0.9595959595959596 0.0
-0.2525252525252525 -0.9595959595959596 0.0
-0.23232323232323226 -0.9595959595959596 0.0
-0.21212121212121204 -0.9595959595959596 0.0
-0.19191919191919182 -0.9595959595959596 0.0
-0.1717171717171716 -0.9595959595959596 0.0
-0.1515151515151515 -0.9595959595959596 0.0
-0.13131313131313127 -0.9595959595959596 0.0
-0.11111111111111105 -0.9595959595959596 0.0
-0.09090909090909083 -0.9595959595959596 0.0
-0.07070707070707061 -0.9595959595959596 0.0
-0.050505050505050386 -0.9595959595959596 0.0
-0.030303030303030276 -0.9595959595959596 0.0
-0.010101010101010055 -0.9595959595959596 0.0
0.010101010101010166 -0.9595959595959596 0.0
0.030303030303030498 -0.9595959595959596 0.0
0.05050505050505061 -0.9595959595959596 0.0
0.07070707070707072 -0.9595959595959596 0.0
0.09090909090909105 -0.9595959595959596 0.0
0.11111111111111116 -0.9595959595959596 0.0
0.1313131313131315 -0.9595959595959596 0.0
0.1515151515151516 -0.9595959595959596 0.0
0.1717171717171717 -0.9595959595959596 0.0
0.19191919191919204 -0.9595959595959596 0.0
0.21212121212121215 -0.9595959595959596 0.0
[...]
POINT_DATA 10000
SCALARS u float 1
LOOKUP_TABLE default
0.030102364718914032
0.02239357680082321
0.011774711310863495
-0.0018697753548622131
-0.018328078091144562
-0.037045933306217194
-0.057156600058078766
-0.07753974944353104
-0.09693301469087601
-0.1140700951218605
-0.12784725427627563
-0.1374681293964386
-0.14256197214126587
-0.1432182788848877
-0.13994523882865906
-0.13355544209480286
-0.12499488145112991
-0.11516416817903519
-0.10476558655500412
-0.09421061724424362
-0.08359123021364212
-0.07272744923830032
-0.06125430017709732
-0.048730768263339996
-0.034765683114528656
-0.019117988646030426
-0.0017742887139320374
0.01699947565793991
0.036647893488407135
0.05635090917348862
0.07508965581655502
0.09175395220518112
0.10527884215116501
0.11481644958257675
0.11989029496908188
0.12052079290151596
0.11727439612150192
0.11118527501821518
0.1035752072930336
0.09578288346529007
0.08888701349496841
0.08349575847387314
0.07966107875108719
0.0769200399518013
0.0744432881474495
0.07123149186372757
0.06631649285554886
0.05892031639814377
0.048569418489933014
0.03514140099287033
0.018866606056690216
0.0002821609377861023
-0.019834883511066437
-0.04055707901716232
-0.06089857220649719
-0.07991049438714981
-0.0967659130692482
-0.11083681136369705
-0.12173070758581161
-0.12930667400360107
-0.1336422562599182
-0.13497447967529297
-0.13362449407577515
-0.1299321949481964
-0.12420985847711563
-0.11673478037118912
-0.10776057094335556
-0.09755387157201767
-0.08640489727258682
-0.07463351637125015
-0.06256190687417984
-0.05047307163476944
-0.03856971114873886
-0.026942826807498932
-0.015555746853351593
-0.004253380000591278
0.0072034671902656555
0.01908918470144272
0.03164710849523544
0.04502182453870773
0.05919557064771652
0.07394102960824966
0.08880724757909775
0.10314097255468369
0.11614301055669785
0.12696507573127747
0.13481175899505615
0.1390475332736969
0.1392957866191864
0.1354806125164032
0.1278567910194397
0.11698602885007858
0.10369104892015457
0.0889841839671135
0.07399006932973862
0.059864841401576996
0.04773341864347458
0.038623563945293427
0.03343620151281357
0.03291761130094528
0.019529424607753754
0.025754056870937347
0.02907734364271164
0.029373012483119965
0.026803486049175262
0.021813683211803436
0.015099488198757172
0.007543586194515228
0.00010963529348373413
-0.006282098591327667
-0.010904408991336823
-0.01333964616060257
-0.013553597033023834
-0.011895932257175446
-0.009015627205371857
-0.00571606308221817
-0.0027824118733406067
-0.0008263960480690002
-0.00017345696687698364
-0.0008203461766242981
-0.002462156116962433
-0.004570953547954559
-0.006506599485874176
-0.0076412633061409
-0.007469631731510162
-0.005702085793018341
-0.002326063811779022
0.0023704543709754944
0.007811404764652252
0.01318717747926712
0.01755692809820175
0.019985072314739227
0.01970822364091873
0.016303829848766327
0.009830974042415619
0.0008909925818443298
-0.009415023028850555
-0.019661404192447662
-0.02835305780172348
-0.03422296792268753
-0.036468930542469025
-0.034891076385974884
-0.029886893928050995
-0.022335641086101532
-0.013407491147518158
-0.004359506070613861
0.003655456006526947
0.00973106175661087
0.013294912874698639
0.014145724475383759
0.012437470257282257
0.008625440299510956
0.003383420407772064
-0.0024944916367530823
-0.00820181518793106
-0.013021551072597504
-0.016410700976848602
-0.018061563372612
-0.017919383943080902
-0.01616663485765457
-0.013162754476070404
-0.009361840784549713
-0.005227528512477875
-0.0011575967073440552
0.0025592073798179626
0.0057483091950416565
0.008323393762111664
0.010245122015476227
0.01147516816854477
0.01195717602968216
0.011619769036769867
0.010408036410808563
0.008316896855831146
0.005427978932857513
0.0019261762499809265
-0.0018999502062797546
-0.005680002272129059
-0.008999966084957123
-0.01145266741514206
-0.012694723904132843
-0.012508191168308258
-0.010842390358448029
-0.007847495377063751
-0.0038699284195899963
0.0005765780806541443
0.00487469881772995
0.008398495614528656
0.01059790700674057
0.011089377105236053
0.00972370058298111
0.006606869399547577
0.0021098777651786804
-0.0031840577721595764
-0.008522503077983856
-0.013056449592113495
-0.015906907618045807
-0.016225852072238922
-0.013239018619060516
-0.006279833614826202
0.0051923468708992004
0.006590716540813446
0.026390068233013153
0.0435534343123436
0.057942382991313934
0.06965091079473495
0.07898052781820297
0.0864047035574913
0.09249585121870041
0.09783133119344711
0.10288336127996445
0.10791703313589096
0.11291133612394333
0.11754506081342697
0.12124275416135788
0.12329923361539841
0.12302102893590927
0.11988403648138046
0.11363928765058517
0.10437291115522385
0.09249084442853928
0.07866110652685165
0.06369931250810623
0.048460088670253754
0.03371157497167587
0.02003457397222519
0.007746197283267975
-0.0031385794281959534
-0.012913219630718231
-0.022136293351650238
-0.03154481202363968
-0.041920311748981476
-0.053931184113025665
-0.06794951111078262
-0.08390451222658157
-0.10119020193815231
-0.11868637055158615
-0.13490134477615356
-0.14820605516433716
-0.15713238716125488
-0.16063159704208374
-0.15824556350708008
-0.15015524625778198
-0.13710197806358337
-0.12023503333330154
-0.10091350227594376
-0.08051840215921402
-0.06028444319963455
-0.04118388146162033
-0.023860611021518707
-0.008601151406764984
0.0046355947852134705
0.016166232526302338
0.0264880433678627
0.036175183951854706
0.04576718062162399
0.055668823421001434
0.06607671827077866
0.07694490998983383
0.087992824614048
0.09875733405351639
0.10866542905569077
0.11712261289358139
0.1235915943980217
0.12766090035438538
0.12907162308692932
0.12773680686950684
0.12371345609426498
0.11716478317975998
0.10830675810575485
0.0973624512553215
0.08453988283872604
0.0700402483344078
0.05407809466123581
0.036910973489284515
0.01886340230703354
0.00033008307218551636
-0.01822427660226822
-0.036293141543865204
-0.053359054028987885
-0.06893623620271683
-0.08261468261480331
-0.09410259872674942
-0.10325760394334793
-0.11010412126779556
-0.11482276767492294
-0.11771383136510849
-0.11915189772844315
-0.11950810998678207
-0.119085393846035
-0.11806327849626541
-0.11645812541246414
-0.11412105709314346
-0.11074412614107132
-0.10590394586324692
-0.0991004928946495
-0.08980277925729752
-0.0774935707449913
-0.061701513826847076
-0.042022235691547394
-0.018138833343982697
-0.008638925850391388
0.02443169802427292
0.0553545281291008
0.0839572474360466
0.11022826284170151
0.13428398966789246
0.15631088614463806
0.17649918794631958
0.1949608325958252
0.21165910363197327
0.2263476848602295
0.2385653257369995
0.24767577648162842
0.2529662251472473
0.253772109746933
0.24961146712303162
0.24028614163398743
0.2259330153465271
0.20702654123306274
0.1843230426311493
0.15876922011375427
0.1313970983028412
0.10320550948381424
0.07505574077367783
0.047578997910022736
0.021120302379131317
-0.00428386777639389
-0.028885535895824432
-0.05315873771905899
-0.07767888158559799
-0.1029660776257515
-0.12931635975837708
-0.15663373470306396
-0.18432241678237915
-0.2112804651260376
-0.23600122332572937
-0.2567906677722931
-0.2720365822315216
-0.2804754078388214
-0.2813824415206909
-0.27465155720710754
-0.2607676684856415
-0.24068713188171387
-0.215675950050354
-0.18713444471359253
-0.1564410924911499
-0.12482327967882156
-0.09326482564210892
-0.062460191547870636
-0.032797761261463165
-0.004386909306049347
0.022883079946041107
0.04925183206796646
0.07498399168252945
0.1002650186419487
0.12511101365089417
0.14932823181152344
0.1725032925605774
0.19405189156532288
0.21328914165496826
0.22950893640518188
0.24206414818763733
0.25041520595550537
0.254173219203949
0.25312408804893494
0.24724259972572327
0.2366897463798523
0.22179055213928223
0.2029828131198883
0.18075990676879883
0.1556202471256256
0.1280437409877777
0.09848307818174362
0.06738785654306412
0.03522000461816788
0.0024760738015174866
-0.030311502516269684
-0.06257263571023941
-0.09371725469827652
-0.12315859645605087
-0.15033864974975586
-0.17475956678390503
-0.19601458311080933
-0.21380850672721863
-0.22796979546546936
-0.23844853043556213
-0.24529609084129333
-0.24863651394844055
-0.24862444400787354
-0.2454090416431427
-0.2391044795513153
-0.2297688126564026
-0.2174002230167389
-0.20193862915039062
-0.1832810938358307
-0.16129857301712036
-0.1358497142791748
-0.10680251568555832
-0.07404551655054092
-0.037503115832805634
-0.02583036571741104
0.020249001681804657
0.06484606117010117
0.1077127680182457
0.14868244528770447
0.18762236833572388
0.22436565160751343
0.2586553692817688
0.2900868058204651
0.3180839717388153
0.3419094383716583
0.36072131991386414
0.37366870045661926
0.3800104856491089
0.3792325258255005
0.37113022804260254
0.3558540940284729
0.33389776945114136
0.30605241656303406
0.2733292579650879
0.23686006665229797
0.19780051708221436
0.1572251319885254
0.11604612320661545
0.07493291050195694
0.034272871911525726
-0.005830995738506317
-0.045520372688770294
-0.08508708328008652
-0.12483546882867813
-0.1649128794670105
-0.20514866709709167
-0.24493274092674255
-0.28317657113075256
-0.31838876008987427
-0.34886327385902405
-0.3729148805141449
-0.38913989067077637
-0.39660534262657166
-0.3949500620365143
-0.3843776285648346
-0.3655758202075958
-0.33958515524864197
-0.30765220522880554
-0.2710927128791809
-0.23117980360984802
-0.18905720114707947
-0.145679771900177
-0.10178140550851822
-0.05787057429552078
-0.01425529271364212
0.028900153934955597
0.07149479538202286
0.11340051144361496
0.15437054634094238
0.1939864158630371
0.23164376616477966
0.26658758521080017
0.29798179864883423
0.32499513030052185
0.3468712270259857
0.3629753887653351
0.3728196322917938
0.37606993317604065
0.37256234884262085
0.3623181879520416
0.3455623984336853
0.32272711396217346
0.29442259669303894
0.26137250661849976
0.22435262799263
0.18412312865257263
0.1413937509059906
0.09682432562112808
0.05103126913309097
0.004615463316440582
-0.04182223230600357
-0.0876600369811058
-0.13225755095481873
-0.1749502718448639
-0.21506500244140625
-0.251931369304657
-0.2849099636077881
-0.3134118616580963
-0.3369285762310028
-0.35505059361457825
-0.3674880266189575
-0.37407591938972473
-0.37477460503578186
-0.3696552515029907
-0.3588872253894806
-0.34270986914634705
-0.3214101791381836
-0.2952996492385864
-0.26468798518180847
-0.22987094521522522
-0.191115140914917
-0.14865529537200928
-0.10269976407289505
-0.05343227833509445
-0.04442698508501053
0.014405809342861176
0.07254429906606674
0.1296023726463318
0.18519455194473267
0.2388620674610138
0.2900227904319763
0.33792218565940857
0.38162511587142944
0.42004942893981934
0.4520435035228729
0.4765014350414276
0.4924895465373993
0.49935978651046753
0.49682870507240295
0.48499634861946106
0.4643355906009674
0.4356241822242737
0.3998710811138153
0.35822927951812744
0.31191110610961914
0.2621045410633087
0.20989835262298584
0.15621572732925415
0.10175960510969162
0.04699241369962692
-0.00785113126039505
-0.06270948797464371
-0.11757958680391312
-0.17237025499343872
-0.22675400972366333
-0.28003421425819397
-0.3310951590538025
-0.37844935059547424
-0.4203871190547943
-0.4551968276500702
-0.4813954532146454
-0.49791815876960754
-0.5042160153388977
-0.5002668499946594
-0.4865087568759918
-0.46372541785240173
-0.4329269230365753
-0.3952312767505646
-0.35177937150001526
-0.30366531014442444
-0.2518972158432007
-0.19737091660499573
-0.14086034893989563
-0.08302003890275955
-0.024410970509052277
0.034460343420505524
0.0930761769413948
0.15084177255630493
0.207035094499588
0.2607889175415039
0.3111138939857483
0.3569715619087219
0.3973500430583954
0.431349515914917
0.4582221210002899
0.47739481925964355
0.4884527623653412
0.49113455414772034
0.4853256046772003
0.47108450531959534
0.4486723244190216
0.4185806214809418
0.38152554631233215
0.33840492367744446
0.29022151231765747
0.2379986047744751
0.18270793557167053
0.12523648142814636
0.06638077646493912
0.006868995726108551
-0.052611373364925385
-0.11138080805540085
-0.16874444484710693
-0.22397133708000183
-0.27628952264785767
-0.3248847424983978
-0.368915319442749
-0.4075404107570648
-0.4399482309818268
-0.46540459990501404
-0.48329654335975647
-0.4931739270687103
-0.4947846233844757
-0.48809173703193665
-0.4732745587825775
-0.4507071077823639
-0.4209219217300415
-0.38456547260284424
-0.3423416018486023
-0.294962078332901
-0.24310609698295593
-0.18739435076713562
-0.1283731758594513
-0.06651709228754044
-0.06367761641740799
0.00760950893163681
0.0790451392531395
0.15003430843353271
0.21988466382026672
0.28774505853652954
0.3525634706020355
0.41307464241981506
0.46785056591033936
0.515392541885376
0.5542668104171753
0.5832530856132507
0.6014711856842041
0.6084640622138977
0.604215145111084
0.5891173481941223
0.5638946294784546
0.5295130610466003
0.4870888590812683
0.43780946731567383
0.38286691904067993
0.32340168952941895
0.2604566514492035
0.19493702054023743
0.1275884509086609
0.05899014323949814
-0.010415397584438324
-0.08024948090314865
-0.15009289979934692
-0.2193511724472046
-0.28714364767074585
-0.35224542021751404
-0.41311219334602356
-0.468007355928421
-0.515190064907074
-0.5531283020973206
-0.5806715488433838
-0.5971468091011047
-0.6023738384246826
-0.5965997576713562
-0.58039790391922
-0.5545517206192017
-0.5199515223503113
-0.4775165617465973
-0.42815372347831726
-0.37273821234703064
-0.31211695075035095
-0.24711710214614868
-0.17856639623641968
-0.10730168968439102
-0.03418692201375961
0.039862148463726044
0.11385039240121841
0.1866774559020996
0.25713834166526794
0.3239448070526123
0.38579264283180237
0.44144192337989807
0.4897914230823517
0.5299369096755981
0.5611811280250549
0.5830264687538147
0.5951338410377502
0.5973090529441833
0.5894878506660461
0.571759819984436
0.5444073677062988
0.5079452395439148
0.46313735842704773
0.4109801948070526
0.3526339530944824
0.2893337607383728
0.22229346632957458
0.1526382565498352
0.08137329667806625
0.009392119944095612
-0.06249769777059555
-0.13352754712104797
-0.20292755961418152
-0.2698916792869568
-0.3335510194301605
-0.3929661214351654
-0.44712701439857483
-0.494983047246933
-0.5354794859886169
-0.5676166415214539
-0.5905140042304993
-0.6034764647483826
-0.6060611009597778
-0.5981104969978333
-0.5797784328460693
-0.5515157580375671
-0.514033854007721
-0.46824297308921814
-0.41518089175224304
-0.3559359014034271
-0.29157936573028564
-0.22311583161354065
-0.15144547820091248
-0.07735546678304672
-0.08268538862466812
0.0006458684802055359
0.08494814485311508
0.16933006048202515
0.2527155876159668
0.3338001072406769
0.41104111075401306
0.4826999008655548
0.5469468832015991
0.6020053625106812
0.6463223695755005
0.6787145733833313
0.698465883731842
0.7053599953651428
0.6996427774429321
0.6819359660148621
0.6531307101249695
0.614278256893158
0.5665009021759033
0.5109240412712097
0.4486384689807892
0.3806695342063904
0.307971715927124
0.23141813278198242
0.15181055665016174
0.06989672034978867
-0.013580761849880219
-0.09782294183969498
-0.18187958002090454
-0.26457300782203674
-0.34445327520370483
-0.4198283851146698
-0.4888613522052765
-0.549744188785553
-0.6008822917938232
-0.6410514712333679
-0.6694878935813904
-0.6858973503112793
-0.6903928518295288
-0.6833950281143188
-0.665515661239624
-0.6374523639678955
-0.5999173521995544
-0.5535911917686462
-0.4991253912448883
-0.4371674358844757
-0.36840254068374634
-0.2936112582683563
-0.2136993110179901
-0.12972807884216309
-0.042914725840091705
0.045368947088718414
0.13361996412277222
0.22022992372512817
0.3035469949245453
0.3819357454776764
0.4538692533969879
0.51800137758255
0.5732173919677734
0.6186534762382507
0.6536803841590881
0.6778667569160461
0.690940797328949
0.6927600502967834
0.6833049654960632
0.6626958250999451
0.631230890750885
0.5894256234169006
0.5380458831787109
0.47811129689216614
0.41085824370384216
0.33765581250190735
0.2599121034145355
0.17898011207580566
0.09609455615282059
0.012354917824268341
-0.07125789672136307
-0.1538371443748474
-0.234498530626297
-0.3123340904712677
-0.38636836409568787
-0.4555431306362152
-0.5187102556228638
-0.5746632218360901
-0.6221693754196167
-0.6600449085235596
-0.6872231960296631
-0.7028397917747498
-0.7063021063804626
-0.6973524689674377
-0.676095724105835
-0.64300137758255
-0.5988773703575134
-0.5448065400123596
-0.48207059502601624
-0.4120616614818573
-0.33619382977485657
-0.2558310925960541
-0.17222899198532104
-0.08651057630777359
-0.10046754032373428
-0.005695350468158722
0.09076520055532455
0.18764224648475647
0.28341224789619446
0.3762921392917633
0.46427688002586365
0.5452432632446289
0.6171009540557861
0.6779638528823853
0.726315975189209
0.7611297965049744
0.7819158434867859
0.7886988520622253
0.7819356918334961
0.7623965740203857
0.7310429215431213
0.6889210343360901
0.6370704770088196
0.5764890313148499
0.508104681968689
0.4327879548072815
0.35138139128685
0.26472368836402893
0.1737014651298523
0.07929372042417526
-0.017375580966472626
-0.11499009281396866
-0.2120009958744049
-0.3066248595714569
-0.3968944847583771
-0.4807697832584381
-0.5562919974327087
-0.6217517256736755
-0.6758289933204651
-0.7176664471626282
-0.746871292591095
-0.7634531855583191
-0.7677174210548401
-0.7601553797721863
-0.7413261532783508
-0.7117834091186523
-0.6720214486122131
-0.6224736571311951
-0.5635421872138977
-0.49566641449928284
-0.4194095730781555
-0.3355398178100586
-0.24508902430534363
-0.14938434958457947
-0.05003363639116287
0.0511203333735466
0.15207439661026
0.2507648169994354
0.3451644480228424
0.4333942234516144
0.5138038992881775
0.5850202441215515
0.6459671854972839
0.6958438754081726
0.7340837121009827
0.76031094789505
0.7742994427680969
0.7759475111961365
0.7652752995491028
0.742431640625
0.7077304124832153
0.6616766452789307
0.6050062775611877
0.5387061834335327
0.4640023112297058
0.3823113441467285
0.2951594591140747
0.20408564805984497
0.11055535823106766
0.01591172069311142
-0.07863571494817734
-0.17197754979133606
-0.2630617916584015
-0.35083135962486267
-0.43418413400650024
-0.5119425058364868
-0.5828493237495422
-0.6455907225608826
-0.6988351345062256
-0.7413037419319153
-0.7718405723571777
-0.7894973158836365
-0.7936028838157654
-0.7838309407234192
-0.7602323889732361
-0.7232512831687927
-0.6737105250358582
-0.6127638816833496
-0.5418318510055542
-0.46251168847084045
-0.3764837086200714
-0.28542497754096985
-0.19092965126037598
-0.09445855766534805
-0.11603645235300064
-0.010705508291721344
0.09683554619550705
0.20487746596336365
0.31142210960388184
0.4142267405986786
0.5109148025512695
0.5991137623786926
0.6766358017921448
0.7416479587554932
0.7927970290184021
0.8292775750160217
0.8508335947990417
0.8576820492744446
0.8504123091697693
0.8298530578613281
0.7969511151313782
0.7526658177375793
0.6979004740715027
0.633476972579956
0.5601340532302856
0.47857633233070374
0.38953107595443726
0.29382893443107605
0.1924833059310913
0.0867653414607048
-0.021754451096057892
-0.1311904788017273
-0.23938634991645813
-0.3440035581588745
-0.44267919659614563
-0.5331860184669495
-0.6136064529418945
-0.6824595928192139
-0.7387572526931763
-0.7819968461990356
-0.8120854496955872
-0.8292334079742432
-0.8338326215744019
-0.8263441324234009
-0.8072077631950378
-0.7767871618270874
-0.7353472113609314
-0.6830820441246033
-0.6201810836791992
-0.5469280481338501
-0.46381840109825134
-0.3716723322868347
-0.27170273661613464
-0.16553974151611328
-0.05519039183855057
0.0570560023188591
0.1687639355659485
0.2775004208087921
0.3809787929058075
0.47717711329460144
0.5643991827964783
0.6413009762763977
0.706864058971405
0.7603464722633362
0.8012361526489258
0.829194962978363
0.8440312743186951
0.8456777930259705
0.8341891169548035
0.8097445964813232
0.7726708054542542
0.7234598994255066
0.6627995371818542
0.5916052460670471
0.5110297203063965
0.42244812846183777
0.32741764187812805
0.22759273648262024
0.12463914602994919
0.020155660808086395
-0.084368996322155
-0.18755921721458435
-0.2881215512752533
-0.3848009705543518
-0.4763331711292267
-0.5614166855812073
-0.6387076377868652
-0.706836998462677
-0.7644491791725159
-0.8102597594261169