# vtk DataFile Version 3.0
2D PINN Solution
ASCII
DATASET STRUCTURED_GRID
DIMENSIONS 100 100 1
POINTS 10000 float
-1.0 -1.0 0.0
-0.9797979797979798 -1.0 0.0
-0.9595959595959596 -1.0 0.0
-0.9393939393939394 -1.0 0.0
-0.9191919191919192 -1.0 0.0
-0.898989898989899 -1.0 0.0
-0.8787878787878788 -1.0 0.0
-0.8585858585858586 -1.0 0.0
-0.8383838383838383 -1.0 0.0
-0.8181818181818181 -1.0 0.0
-0.797979797979798 -1.0 0.0
-0.7777777777777778 -1.0 0.0
-0.7575757575757576 -1.0 0.0
-0.7373737373737373 -1.0 0.0
-0.7171717171717171 -1.0 0.0
-0.696969696969697 -1.0 0.0
-0.6767676767676767 -1.0 0.0
-0.6565656565656566 -1.0 0.0
-0.6363636363636364 -1.0 0.0
-0.6161616161616161 -1.0 0.0
-0.5959595959595959 -1.0 0.0
-0.5757575757575757 -1.0 0.0
-0.5555555555555556 -1.0 0.0
-0.5353535353535352 -1.0 0.0
-0.5151515151515151 -1.0 0.0
-0.4949494949494949 -1.0 0.0
-0.4747474747474747 -1.0 0.0
-0.4545454545454545 -1.0 0.0
-0.43434343434343425 -1.0 0.0
-0.41414141414141414 -1.0 0.0
-0.3939393939393939 -1.0 0.0
-0.3737373737373737 -1.0 0.0
-0.3535353535353535 -1.0 0.0
-0.33333333333333326 -1.0 0.0
-0.31313131313131304 -1.0 0.0
-0.2929292929292928 -1.0 0.0
-0.2727272727272727 -1.0 0.0
-0.2525252525252525 -1.0 0.0
-0.23232323232323226 -1.0 0.0
-0.21212121212121204 -1.0 0.0
-0.19191919191919182 -1.0 0.0
-0.1717171717171716 -1.0 0.0
-0.1515151515151515 -1.0 0.0
-0.13131313131313127 -1.0 0.0
-0.11111111111111105 -1.0 0.0
-0.09090909090909083 -1.0 0.0
-0.07070707070707061 -1.0 0.0
-0.050505050505050386 -1.0 0.0
-0.030303030303030276 -1.0 0.0
-0.010101010101010055 -1.0 0.0
0.010101010101010166 -1.0 0.0
0.030303030303030498 -1.0 0.0
0.05050505050505061 -1.0 0.0
0.07070707070707072 -1.0 0.0
0.09090909090909105 -1.0 0.0
0.11111111111111116 -1.0 0.0
0.1313131313131315 -1.0 0.0
0.1515151515151516 -1.0 0.0
0.1717171717171717 -1.0 0.0
0.19191919191919204 -1.0 0.0
0.21212121212121215 -1.0 0.0
0.2323232323232325 -1.0 0.0
0.2525252525252526 -1.0 0.0
0.27272727272727293 -1.0 0.0
0.29292929292929304 -1.0 0.0
0.31313131313131315 -1.0 0.0
0.3333333333333335 -1.0 0.0
0.3535353535353536 -1.0 0.0
0.3737373737373739 -1.0 0.0
0.39393939393939403 -1.0 0.0
0.41414141414141437 -1.0 0.0
0.4343434343434345 -1.0 0.0
0.4545454545454546 -1.0 0.0
0.4747474747474749 -1.0 0.0
0.49494949494949503 -1.0 0.0
0.5151515151515154 -1.0 0.0
0.5353535353535355 -1.0 0.0
0.5555555555555556 -1.0 0.0
0.5757575757575759 -1.0 0.0
0.595959595959596 -1.0 0.0
0.6161616161616164 -1.0 0.0
0.6363636363636365 -1.0 0.0
0.6565656565656568 -1.0 0.0
0.6767676767676769 -1.0 0.0
0.696969696969697 -1.0 0.0
0.7171717171717173 -1.0 0.0
0.7373737373737375 -1.0 0.0
0.7575757575757578 -1.0 0.0
0.7777777777777779 -1.0 0.0
0.7979797979797982 -1.0 0.0
0.8181818181818183 -1.0 0.0
0.8383838383838385 -1.0 0.0
0.8585858585858588 -1.0 0.0
0.8787878787878789 -1.0 0.0
0.8989898989898992 -1.0 0.0
0.9191919191919193 -1.0 0.0
0.9393939393939394 -1.0 0.0
0.9595959595959598 -1.0 0.0
0.9797979797979799 -1.0 0.0
1.0 -1.0 0.0
-1.0 -0.9797979797979798 0.0
-0.9797979797979798 -0.9797979797979798 0.0
-0.9595959595959596 -0.9797979797979798 0.0
-0.9393939393939394 -0.9797979797979798 0.0
-0.9191919191919192 -0.9797979797979798 0.0
-0.898989898989899 -0.9797979797979798 0.0
-0.8787878787878788 -0.9797979797979798 0.0
-0.8585858585858586 -0.9797979797979798 0.0
-0.8383838383838383 -0.9797979797979798 0.0
-0.8181818181818181 -0.9797979797979798 0.0
-0.797979797979798 -0.9797979797979798 0.0
-0.7777777777777778 -0.9797979797979798 0.0
-0.7575757575757576 -0.9797979797979798 0.0
-0.7373737373737373 -0.9797979797979798 0.0
-0.7171717171717171 -0.9797979797979798 0.0
-0.696969696969697 -0.9797979797979798 0.0
-0.6767676767676767 -0.9797979797979798 0.0
-0.6565656565656566 -0.9797979797979798 0.0
-0.6363636363636364 -0.9797979797979798 0.0
-0.6161616161616161 -0.9797979797979798 0.0
-0.5959595959595959 -0.9797979797979798 0.0
-0.5757575757575757 -0.9797979797979798 0.0
-0.5555555555555556 -0.9797979797979798 0.0
-0.5353535353535352 -0.9797979797979798 0.0
-0.5151515151515151 -0.9797979797979798 0.0
-0.4949494949494949 -0.9797979797979798 0.0
-0.4747474747474747 -0.9797979797979798 0.0
-0.4545454545454545 -0.9797979797979798 0.0
-0.43434343434343425 -0.9797979797979798 0.0
-0.41414141414141414 -0.9797979797979798 0.0
-0.3939393939393939 -0.9797979797979798 0.0
-0.3737373737373737 -0.9797979797979798 0.0
-0.3535353535353535 -0.9797979797979798 0.0
-0.33333333333333326 -0.9797979797979798 0.0
-0.31313131313131304 -0.9797979797979798 0.0
-0.2929292929292928 -0.9797979797979798 0.0
-0.2727272727272727 -0.9797979797979798 0.0
-0.2525252525252525 -0.9797979797979798 0.0
-0.23232323232323226 -0.9797979797979798 0.0
-0.21212121212121204 -0.9797979797979798 0.0
-0.19191919191919182 -0.9797979797979798 0.0
-0.1717171717171716 -0.9797979797979798 0.0
-0.1515151515151515 -0.9797979797979798 0.0
-0.13131313131313127 -0.9797979797979798 0.0
-0.11111111111111105 -0.9797979797979798 0.0
-0.09090909090909083 -0.9797979797979798 0.0
-0.07070707070707061 -0.9797979797979798 0.0
-0.050505050505050386 -0.9797979797979798 0.0
-0.030303030303030276 -0.9797979797979798 0.0
-0.010101010101010055 -0.9797979797979798 0.0
0.010101010101010166 -0.9797979797979798 0.0
0.030303030303030498 -0.9797979797979798 0.0
0.05050505050505061 -0.9797979797979798 0.0
0.07070707070707072 -0.9797979797979798 0.0
0.09090909090909105 -0.9797979797979798 0.0
0.11111111111111116 -0.9797979797979798 0.0
0.1313131313131315 -0.9797979797979798 0.0
0.1515151515151516 -0.9797979797979798 0.0
0.1717171717171717 -0.9797979797979798 0.0
0.19191919191919204 -0.9797979797979798 0.0
0.21212121212121215 -0.9797979797979798 0.0
0.2323232323232325 -0.9797979797979798 0.0
0.2525252525252526 -0.9797979797979798 0.0
0.27272727272727293 -0.9797979797979798 0.0
0.29292929292929304 -0.9797979797979798 0.0
0.31313131313131315 -0.9797979797979798 0.0
0.3333333333333335 -0.9797979797979798 0.0
0.3535353535353536 -0.9797979797979798 0.0
0.3737373737373739 -0.9797979797979798 0.0
0.39393939393939403 -0.9797979797979798 0.0
0.41414141414141437 -0.9797979797979798 0.0
0.4343434343434345 -0.9797979797979798 0.0
0.4545454545454546 -0.9797979797979798 0.0
0.4747474747474749 -0.9797979797979798 0.0
0.49494949494949503 -0.9797979797979798 0.0
0.5151515151515154 -0.9797979797979798 0.0
0.5353535353535355 -0.9797979797979798 0.0
0.5555555555555556 -0.9797979797979798 0.0
0.5757575757575759 -0.9797979797979798 0.0
0.595959595959596 -0.9797979797979798 0.0
0.6161616161616164 -0.9797979797979798 0.0
0.6363636363636365 -0.9797979797979798 0.0
0.6565656565656568 -0.9797979797979798 0.0
0.6767676767676769 -0.9797979797979798 0.0
0.696969696969697 -0.9797979797979798 0.0
0.7171717171717173 -0.9797979797979798 0.0
0.7373737373737375 -0.9797979797979798 0.0
0.7575757575757578 -0.9797979797979798 0.0
0.7777777777777779 -0.9797979797979798 0.0
0.7979797979797982 -0.9797979797979798 0.0
0.8181818181818183 -0.9797979797979798 0.0
0.8383838383838385 -0.9797979797979798 0.0
0.8585858585858588 -0.9797979797979798 0.0
0.8787878787878789 -0.9797979797979798 0.0
0.8989898989898992 -0.9797979797979798 0.0
0.9191919191919193 -0.9797979797979798 0.0
0.9393939393939394 -0.9797979797979798 0.0
0.9595959595959598 -0.9797979797979798 0.0
0.9797979797979799 -0.9797979797979798 0.0
1.0 -0.9797979797979798 0.0
-1.0 -0.9595959595959596 0.0
-0.9797979797979798 -0.9595959595959596 0.0
-0.9595959595959596 -0.9595959595959596 0.0
-0.9393939393939394 -0.9595959595959596 0.0
-0.9191919191919192 -0.9595959595959596 0.0
-0.898989898989899 -0.9595959595959596 0.0
-0.8787878787878788 -0.9595959595959596 0.0
-0.8585858585858586 -0.9595959595959596 0.0
-0.8383838383838383 -0.9595959595959596 0.0
-0.8181818181818181 -0.9595959595959596 0.0
-0.797979797979798 -0.9595959595959596 0.0
-0.7777777777777778 -0.9595959595959596 0.0
-0.7575757575757576 -0.9595959595959596 0.0
-0.7373737373737373 -0.9595959595959596 0.0
-0.7171717171717171 -0.9595959595959596 0.0
-0.696969696969697 -0.9595959595959596 0.0
-0.6767676767676767 -0.9595959595959596 0.0
-0.6565656565656566 -0.9595959595959596 0.0
-0.6363636363636364 -0.9595959595959596 0.0
-0.6161616161616161 -0.9595959595959596 0.0
-0.5959595959595959 -0.9595959595959596 0.0
-0.5757575757575757 -0.9595959595959596 0.0
-0.5555555555555556 -0.9595959595959596 0.0
-0.5353535353535352 -0.9595959595959596 0.0
-0.5151515151515151 -0.9595959595959596 0.0
-0.4949494949494949 -0.9595959595959596 0.0
-0.4747474747474747 -0.9595959595959596 0.0
-0.4545454545454545 -0.9595959595959596 0.0
-0.43434343434343425 -0.9595959595959596 0.0
-0.41414141414141414 -0.9595959595959596 0.0
-0.3939393939393939 -0.9595959595959596 0.0
-0.3737373737373737 -0.9595959595959596 0.0
-0.3535353535353535 -0.9595959595959596 0.0
-0.33333333333333326 -0.9595959595959596 0.0
-0.31313131313131304 -0.9595959595959596 0.0
-0.2929292929292928 -0.9595959595959596 0.0
-0.2727272727272727 -0.9595959595959596 0.0
-0.2525252525252525 -0.9595959595959596 0.0
-0.23232323232323226 -0.9595959595959596 0.0
-0.21212121212121204 -0.9595959595959596 0.0
-0.19191919191919182 -0.9595959595959596 0.0
-0.1717171717171716 -0.9595959595959596 0.0
-0.1515151515151515 -0.9595959595959596 0.0
-0.13131313131313127 -0.9595959595959596 0.0
-0.11111111111111105 -0.9595959595959596 0.0
-0.09090909090909083 -0.9595959595959596 0.0
-0.07070707070707061 -0.9595959595959596 0.0
-0.050505050505050386 -0.9595959595959596 0.0
-0.030303030303030276 -0.9595959595959596 0.0
-0.010101010101010055 -0.9595959595959596 0.0
0.010101010101010166 -0.9595959595959596 0.0
0.030303030303030498 -0.9595959595959596 0.0
0.05050505050505061 -0.9595959595959596 0.0
0.07070707070707072 -0.9595959595959596 0.0
0.09090909090909105 -0.9595959595959596 0.0
0.11111111111111116 -0.9595959595959596 0.0
0.1313131313131315 -0.9595959595959596 0.0
0.1515151515151516 -0.9595959595959596 0.0
0.1717171717171717 -0.9595959595959596 0.0
0.19191919191919204 -0.9595959595959596 0.0
0.21212121212121215 -0.9595959595959596 0.0
[...]
POINT_DATA 10000
SCALARS u float 1
LOOKUP_TABLE default
0.1989663541316986
0.1495908498764038
0.09976782649755478
0.04920350760221481
-0.00242818146944046
-0.055320121347904205
-0.1094147339463234
-0.1643107831478119
-0.21923500299453735
-0.2730623185634613
-0.32437822222709656
-0.37159737944602966
-0.41310325264930725
-0.44738999009132385
-0.47320452332496643
-0.48965904116630554
-0.49629727005958557
-0.49312737584114075
-0.48059698939323425
-0.4595280587673187
-0.4310072958469391
-0.39624929428100586
-0.35645872354507446
-0.312700480222702
-0.265818327665329
-0.21640488505363464
-0.16482913494110107
-0.11130032688379288
-0.05596417933702469
0.0009928569197654724
0.05924954265356064
0.118275947868824
0.17728227376937866
0.23519974946975708
0.29069679975509644
0.3422277271747589
0.3881310820579529
0.42676353454589844
0.4566745460033417
0.4767929017543793
0.48658621311187744
0.4861500561237335
0.47619205713272095
0.45788344740867615
0.43263110518455505
0.4018092155456543
0.36654898524284363
0.32762232422828674
0.2854444086551666
0.24017372727394104
0.19184419512748718
0.14050805568695068
0.08633636683225632
0.029691793024539948
-0.028848685324192047
-0.08848840743303299
-0.1482311487197876
-0.2069135308265686
-0.26325222849845886
-0.31590279936790466
-0.36353349685668945
-0.4049014151096344
-0.4389375150203705
-0.46481165289878845
-0.48198452591896057
-0.4902184307575226
-0.48956790566444397
-0.4803358018398285
-0.4630254805088043
-0.43828824162483215
-0.4068765938282013
-0.3696051239967346
-0.32730814814567566
-0.2808115482330322
-0.23089754581451416
-0.17828139662742615
-0.12359269708395004
-0.06738127022981644
-0.01014227420091629
0.047647081315517426
0.10546564310789108
0.16268622875213623
0.2185378074645996
0.27207112312316895
0.322189599275589
0.3676934540271759
0.4073691666126251
0.44009697437286377
0.4649428129196167
0.48124203085899353
0.488646537065506
0.487154096364975
0.47709202766418457
0.4591021239757538
0.43409860134124756
0.4032272398471832
0.36781206727027893
0.3293014168739319
0.2892097532749176
0.24906185269355774
0.14505723118782043
0.11216535419225693
0.0786714181303978
0.04396110028028488
0.0074953362345695496
-0.031064219772815704
-0.07175592333078384
-0.11425194889307022
-0.15783637762069702
-0.20142582058906555
-0.2436314821243286
-0.2828817665576935
-0.31756195425987244
-0.34618234634399414
-0.36753198504447937
-0.38080090284347534
-0.38566121459007263
-0.3822786211967468
-0.37126556038856506
-0.35356956720352173
-0.330329954624176
-0.3027101457118988
-0.2717483639717102
-0.23825615644454956
-0.20276352763175964
-0.1655380129814148
-0.1266452670097351
-0.08604971319437027
-0.043719492852687836
0.0002706870436668396
0.045656196773052216
0.0919216200709343
0.1382787525653839
0.18367111682891846
0.22681504487991333
0.2662809193134308
0.30060872435569763
0.3284640610218048
0.3488093614578247
0.3610649108886719
0.3652172088623047
0.3618292808532715
0.35192808508872986
0.3367893099784851
0.3176664710044861
0.2955580949783325
0.271060973405838
0.24435842037200928
0.2153112292289734
0.18361058831214905
0.14895159006118774
0.1111639067530632
0.07030516117811203
0.026696331799030304
-0.019078515470027924
-0.06619823724031448
-0.1136574074625969
-0.16031304001808167
-0.2049555480480194
-0.24637427926063538
-0.28343427181243896
-0.3151441812515259
-0.3407136797904968
-0.3595924973487854
-0.3714839518070221
-0.3763350546360016
-0.3742992579936981
-0.3657045066356659
-0.35101214051246643
-0.3307943046092987
-0.30569443106651306
-0.27641215920448303
-0.24366363883018494
-0.2081490457057953
-0.1705091893672943
-0.13129350543022156
-0.09093671292066574
-0.04975733906030655
-0.00797862559556961
0.0342259481549263
0.07667260617017746
0.11909305304288864
0.1610690951347351
0.20198702812194824
0.24102553725242615
0.2771886885166168
0.3093683123588562
0.33645403385162354
0.35743337869644165
0.37150463461875916
0.37815746665000916
0.3772188425064087
0.3688756227493286
0.35366061329841614
0.3324185609817505
0.3062523901462555
0.2764562666416168
0.244452565908432
0.21171078085899353
0.17968815565109253
0.09202670305967331
0.07499527186155319
0.05714248865842819
0.037680499255657196
0.01596798747777939
-0.00839424878358841
-0.03549522906541824
-0.0650630071759224
-0.09645245224237442
-0.12866181135177612
-0.16040056943893433
-0.1902075707912445
-0.21658769249916077
-0.23818889260292053
-0.25395920872688293
-0.2632746696472168
-0.26600396633148193
-0.2624986171722412
-0.25350385904312134
-0.24001982808113098
-0.22312110662460327
-0.20379087328910828
-0.18278616666793823
-0.16057151556015015
-0.13731658458709717
-0.11295390874147415
-0.087273009121418
-0.06003382056951523
-0.03107919543981552
-0.0004248395562171936
0.031672053039073944
0.06467711180448532
0.09777995198965073
0.1299290657043457
0.1599065363407135
0.186438649892807
0.20834121108055115
0.22468256950378418
0.2349422574043274
0.23912009596824646
0.23776596784591675
0.23188084363937378
0.2227211594581604
0.21152207255363464
0.19924664497375488
0.18641480803489685
0.17305633425712585
0.1587916910648346
0.14299118518829346
0.12496548146009445
0.1041371300816536
0.08016789704561234
0.05302407592535019
0.02299218624830246
-0.00934629887342453
-0.04316995292901993
-0.07748573273420334
-0.11120269447565079
-0.14321959018707275
-0.17249786853790283
-0.1981404721736908
-0.21945050358772278
-0.235963374376297
-0.24744993448257446
-0.2538902461528778
-0.2554300129413605
-0.2523227035999298
-0.24489903450012207
-0.2335377335548401
-0.21866634488105774
-0.20075979828834534
-0.1803358495235443
-0.15793690085411072
-0.1340910792350769
-0.10927074402570724
-0.08385250717401505
-0.05808878690004349
-0.0321003720164299
-0.005892224609851837
0.02060616761445999
0.04747708886861801
0.07474564760923386
0.10230755060911179
0.1298646628856659
0.15689772367477417
0.18266496062278748
0.206255704164505
0.22666633129119873
0.2429141104221344
0.2541494071483612
0.25975707173347473
0.2594366669654846
0.25323423743247986
0.24155327677726746
0.22511819005012512
0.20492717623710632
0.18217182159423828
0.15816432237625122
0.13425716757774353
0.11176847666501999
0.039641402661800385
0.037584058940410614
0.03454213589429855
0.02965819090604782
0.022268228232860565
0.011961720883846283
-0.001370348036289215
-0.017505057156085968
-0.03588319569826126
-0.05563104897737503
-0.07562939077615738
-0.09461916238069534
-0.11134714633226395
-0.12472648173570633
-0.1339854896068573
-0.13877645134925842
-0.13921546936035156
-0.13582804799079895
-0.12943601608276367
-0.12098667770624161
-0.11136553436517715
-0.10125718265771866
-0.09104841202497482
-0.08080830425024033
-0.0703357383608818
-0.059248484671115875
-0.04710065573453903
-0.033498845994472504
-0.01820627599954605
-0.001218356192111969
0.01718788594007492
0.03644555062055588
0.05572640150785446
0.07400640100240707
0.09017672389745712
0.10318631678819656
0.1122061088681221
0.11678863316774368
0.11699128895998001
0.11341201514005661
0.10711447149515152
0.09943168610334396
0.09170059114694595
0.08498170226812363
0.07985342293977737
0.07633613795042038
0.07393842190504074
0.07180949300527573
0.06893917173147202
0.06435386091470718
0.05728175491094589
0.04725375026464462
0.0341586098074913
0.018234126269817352
2.4043023586273193e-05
-0.019689984619617462
-0.039981432259082794
-0.05986783653497696
-0.07840875536203384
-0.09479052573442459
-0.10839784890413284
-0.11885786801576614
-0.12604445219039917
-0.13004815578460693
-0.13111773133277893
-0.12958061695098877
-0.12578001618385315
-0.12002842873334885
-0.11260072141885757
-0.10375019162893295
-0.09374093264341354
-0.08285871893167496
-0.07141927629709244
-0.059738315641880035
-0.04809007793664932
-0.03666634112596512
-0.02554655820131302
-0.014682404696941376
-0.003908045589923859
0.007026500999927521
0.01840568333864212
0.030477695167064667
0.04339604824781418
0.05714475363492966
0.07150136679410934
0.08601822704076767
0.1000446304678917
0.11278455704450607
0.12339282780885696
0.13107824325561523
0.13521379232406616
0.135420560836792
0.13163024187088013
0.12409894913434982
0.11339028924703598
0.10032438486814499
0.08591022342443466
0.07126667350530624
0.05754249542951584
0.04584883898496628
-0.012415118515491486
-0.0005025938153266907
0.010401271283626556
0.019439123570919037
0.025968335568904877
0.029597513377666473
0.030206851661205292
0.027968697249889374
0.023330651223659515
0.01699080318212509
0.009828709065914154
0.0027984902262687683
-0.0031960979104042053
-0.0074510350823402405
-0.009572364389896393
-0.009553976356983185
-0.007765032351016998
-0.004865624010562897
-0.001662321388721466
0.0010688528418540955
0.0027342066168785095
0.003034345805644989
0.0019941553473472595
-5.654245615005493e-05
-0.002574242651462555
-0.0049074068665504456
-0.006423987448215485
-0.006621725857257843
-0.005217932164669037
-0.002209492027759552
0.002102397382259369
0.007132269442081451
0.012064628303050995
0.01595812290906906
0.017885588109493256
0.017101533710956573
0.013211689889431
0.0063078925013542175
-0.00297362357378006
-0.013502202928066254
-0.023836679756641388
-0.03248117119073868
-0.03818347305059433
-0.0401693657040596
-0.038269855082035065
-0.03291326016187668
-0.025001250207424164
-0.015719227492809296
-0.006328321993350983
0.0020184889435768127
0.008422069251537323
0.012319914996623993
0.013519935309886932
0.012183822691440582
0.00877072662115097
0.003957591950893402
-0.00146571546792984
-0.006700567901134491
-0.0110420361161232
-0.013962753117084503
-0.015172205865383148
-0.014632120728492737
-0.012541994452476501
-0.009270422160625458
-0.00528080016374588
-0.0010393410921096802
0.0030565187335014343
0.006718955934047699
0.009777821600437164
0.012150757014751434
0.013803549110889435
0.014700941741466522
0.014794476330280304
0.014021269977092743
0.012335114181041718
0.009741611778736115
0.0063324496150016785
0.0023056641221046448
-0.0020418986678123474
-0.0063308849930763245
-0.010140158236026764
-0.01305503398180008
-0.014730043709278107
-0.014941520988941193
-0.013636164367198944
-0.010960228741168976
-0.007258288562297821
-0.003037087619304657
0.0010903403162956238
0.004502944648265839
0.006653331220149994
0.007166557013988495
0.005891866981983185
0.002941317856311798
-0.0013223066926002502
-0.006315253674983978
-0.011292226612567902
-0.015415050089359283
-0.017814628779888153
-0.017654769122600555
-0.06439990550279617
-0.03954089432954788
-0.015521682798862457
0.006837330758571625
0.026936493813991547
0.04440801590681076
0.05912020057439804
0.07117005437612534
0.08086463063955307
0.08867170661687851
0.09515594691038132
0.10087933391332626
0.10629617422819138
0.11164429038763046
0.11687877029180527
0.12165453284978867
0.1253851354122162
0.12735909223556519
0.12689128518104553
0.12347089499235153
0.1168745681643486
0.10720892995595932
0.09490825980901718
0.08065392822027206
0.06527773290872574
0.04963778704404831
0.034504033625125885
0.020451150834560394
0.007789097726345062
-0.003479309380054474
-0.0136571004986763
-0.02331099659204483
-0.03317875415086746
-0.044038720428943634
-0.056540973484516144
-0.07103428989648819
-0.0874164029955864
-0.10504629462957382
-0.12277420610189438
-0.13909050822257996
-0.152360737323761
-0.16113051772117615
-0.1643759310245514
-0.1616700291633606
-0.15322306752204895
-0.13980025053024292
-0.1225690022110939
-0.1028958335518837
-0.08216025680303574
-0.06159026175737381
-0.0421537384390831
-0.024481453001499176
-0.00885394960641861
0.0047790780663490295
0.016733191907405853
0.027506045997142792
0.03766379505395889
0.04773523658514023
0.058107949793338776
0.06896305829286575
0.0802348181605339
0.09162818640470505
0.1026669517159462
0.11276765912771225
0.12133491784334183
0.1278318166732788
0.13184615969657898
0.13312506675720215
0.1315847635269165
0.12728673219680786
0.12040374428033829
0.1111578568816185
0.0997786745429039
0.08648591488599777
0.07148813456296921
0.05501116067171097
0.03732267767190933
0.018755458295345306
-0.00028461962938308716
-0.01932872086763382
-0.03786277025938034
-0.05536603182554245
-0.07134702056646347
-0.08539289981126785
-0.09721044450998306
-0.10665059834718704
-0.11373377591371536
-0.11863449960947037
-0.12165022641420364
-0.1231471374630928
-0.12349144369363785
-0.12298408895730972
-0.12180077284574509
-0.11996256560087204
-0.11732076853513718
-0.11357755213975906
-0.10831714421510696
-0.10105174034833908
-0.09126246720552444
-0.07844560593366623
-0.1164122000336647
-0.07958904653787613
-0.04321698099374771
-0.00806424766778946
0.025311075150966644
0.0565524622797966
0.0854903981089592
0.1121174618601799
0.13654521107673645
0.15895497798919678
0.17952048778533936
0.19833669066429138
0.2153417468070984
0.2302670180797577
0.24262955784797668
0.2517778277397156
0.2569948136806488
0.25762033462524414
0.2531868517398834
0.24351558089256287
0.2287687361240387
0.20944130420684814
0.18630769848823547
0.16032809019088745
0.13254314661026
0.10395320504903793
0.07541535049676895
0.047555021941661835
0.020708926022052765
-0.005096442997455597
-0.03012148290872574
-0.05484207719564438
-0.07982862740755081
-0.10559166222810745
-0.13240456581115723
-0.16013887524604797
-0.18816962838172913
-0.21536311507225037
-0.24019232392311096
-0.26095816493034363
-0.27605801820755005
-0.2842511236667633
-0.28484126925468445
-0.2777528464794159
-0.26349663734436035
-0.24304473400115967
-0.21767261624336243
-0.18878400325775146
-0.15774983167648315
-0.12579044699668884
-0.0938824787735939
-0.06270980089902878
-0.0326552614569664
-0.0038251355290412903
0.023889608681201935
0.05072473734617233
0.07693267613649368
0.10268361121416092
0.12797781825065613
0.15260058641433716
0.17612504959106445
0.197952002286911
0.21738839149475098
0.23372438549995422
0.2463119924068451
0.2546127736568451
0.25824248790740967
0.2569888234138489
0.2508341073989868
0.2399463653564453
0.22465762495994568
0.2054157853126526
0.18272241950035095
0.15708866715431213
0.12900012731552124
0.09892206639051437
0.06731105595827103
0.03463829308748245
0.0014054849743843079
-0.031846947968006134
-0.06454580277204514
-0.09609775990247726
-0.12591096758842468
-0.1534242033958435
-0.1781374216079712
-0.19963675737380981
-0.21762403845787048
-0.23191940784454346
-0.24246880412101746
-0.2493177056312561
-0.25258293747901917
-0.25242048501968384
-0.2489771842956543
-0.2423725724220276
-0.23267081379890442
-0.21987804770469666
-0.2039479911327362
-0.1847902536392212
-0.1622876226902008
-0.13631382584571838
-0.16832563281059265
-0.12045476585626602
-0.07241488248109818
-0.024929173290729523
0.021466992795467377
0.06639804691076279
0.10961469262838364
0.15095040202140808
0.1902618706226349
0.2273734211921692
0.26200538873672485
0.29373419284820557
0.3219572901725769
0.34592175483703613
0.3647683262825012
0.3776422142982483
0.38380661606788635
0.3827594518661499
0.374319851398468
0.3586553633213043
0.33628347516059875
0.30801084637641907
0.27486178278923035
0.23797565698623657
0.19850879907608032
0.15753814578056335
0.11596732586622238
0.07445954531431198
0.03339628130197525
-0.007128782570362091
-0.047257669270038605
-0.08728010207414627
-0.12748980522155762
-0.16801509261131287
-0.2086580991744995
-0.2487768828868866
-0.28725454211235046
-0.322579562664032
-0.3530369699001312
-0.37695035338401794
-0.39293572306632996
-0.4000895321369171
-0.3980766236782074
-0.3871295750141144
-0.3679530918598175
-0.34159722924232483
-0.3093106150627136
-0.2724052369594574
-0.2321479618549347
-0.18967276811599731
-0.14592695236206055
-0.10163731127977371
-0.05730994790792465
-0.013254515826702118
0.030360601842403412
0.07342515140771866
0.11579572409391403
0.15720832347869873
0.197228342294693
0.23523297905921936
0.27045580744743347
0.30205175280570984
0.32918474078178406
0.3510988652706146
0.36715954542160034
0.37688297033309937
0.3799382150173187
0.3761644959449768
0.36559000611305237
0.34844765067100525
0.3251795470714569
0.29640474915504456
0.262859970331192
0.22533050179481506
0.18458405137062073
0.14134228229522705
0.09626931697130203
0.04998987168073654
0.003109879791736603
-0.04376447945833206
-0.09001020342111588
-0.13497978448867798
-0.17800861597061157
-0.21841749548912048
-0.2555331587791443
-0.28871044516563416
-0.317354291677475
-0.34094879031181335
-0.3590821921825409
-0.37145572900772095
-0.3779059052467346
-0.3783881962299347
-0.3729781210422516
-0.3618497848510742
-0.3452514111995697
-0.3234832286834717
-0.29686784744262695
-0.2657303512096405
-0.23037925362586975
-0.19109442830085754
-0.21976134181022644
-0.16168281435966492
-0.1025954857468605
-0.04319394379854202
0.015973202884197235
0.07446160167455673
0.13188359141349792
0.18784284591674805
0.24187028408050537
0.29336509108543396
0.3415507972240448
0.385469526052475
0.4240196943283081
0.4560391902923584
0.4804157316684723
0.4962197244167328
0.5028204321861267
0.49995124340057373
0.487735778093338
0.46666401624679565
0.437531441450119
0.4013577997684479
0.35930293798446655
0.3125799000263214
0.26237553358078003
0.20977509021759033
0.15569379925727844
0.1008305475115776
0.045642636716365814
-0.009638704359531403
-0.06494676321744919
-0.12026851624250412
-0.1754971146583557
-0.23027771711349487
-0.2838853895664215
-0.335176557302475
-0.3826431334018707
-0.42456719279289246
-0.45924362540245056
-0.4852074682712555
-0.5014200210571289
-0.5073627233505249
-0.5030383467674255
-0.4889029562473297
-0.46575090289115906
-0.43459466099739075
-0.3965507447719574
-0.3527509272098541
-0.30428189039230347
-0.2521427869796753
-0.19722449779510498
-0.14029765129089355
-0.08201918751001358
-0.0229543074965477
0.03638073056936264
0.09545429795980453
0.15365609526634216
0.21024590730667114
0.2643400728702545
0.3149391710758209
0.36099380254745483
0.401490718126297
0.43552905321121216
0.46236369013786316
0.4814244508743286
0.49229830503463745
0.4947263300418854
0.4885993003845215
0.473981112241745
0.4511423408985138
0.4205833375453949
0.38303467631340027
0.3394031226634979
0.29070401191711426
0.2379682958126068
0.1821749210357666
0.12421736866235733
0.0648992583155632
0.004951022565364838
-0.05493537336587906
-0.11407793313264847
-0.17177638411521912
-0.22729888558387756
-0.27986592054367065
-0.32866039872169495
-0.3728368878364563
-0.41154518723487854
-0.44396963715553284
-0.4693709909915924
-0.4871331751346588
-0.49680420756340027
-0.49813494086265564
-0.491092711687088
-0.47586438059806824
-0.4528335630893707
-0.42254745960235596
-0.38566523790359497
-0.3429032266139984
-0.294986754655838
-0.24260827898979187
-0.2700735032558441
-0.2025640904903412
-0.13300910592079163
-0.06210464984178543
0.009536020457744598
0.0813375934958458
0.1526944637298584
0.22290250658988953
0.29109272360801697
0.3561890125274658
0.41690734028816223
0.47180020809173584
0.5193542242050171
0.5581337809562683
0.5869256258010864
0.6048643589019775
0.6115124821662903
0.6068774461746216
0.591369092464447
0.5657283067703247
0.5309318900108337
0.48810315132141113
0.43842658400535583
0.38309305906295776
0.32323670387268066
0.2598950266838074
0.19396904110908508
0.12619876861572266
0.057163678109645844
-0.012688703835010529
-0.08297208696603775
-0.1532461941242218
-0.2228938639163971
-0.2910086214542389
-0.356336385011673
-0.4173148572444916
-0.4721975028514862
-0.5192490220069885
-0.5569549202919006
-0.5841897130012512
-0.6003094911575317
-0.6051592826843262
-0.5990068316459656
-0.58243328332901
-0.5562276244163513
-0.5212764143943787
-0.4784925878047943
-0.4287734925746918
-0.37298694252967834
-0.31197109818458557
-0.2465539574623108
-0.17756351828575134
-0.10584262758493423
-0.03226698189973831
0.0422356054186821
0.11665213853120804
0.18986794352531433
0.26065927743911743
0.32772889733314514
0.3897646963596344
0.44552406668663025
0.493907630443573
0.5340138077735901
0.5651502013206482
0.5868182182312012
0.5986862182617188
0.6005586385726929
0.5923754572868347
0.5742344260215759
0.5464257001876831
0.5094751119613647
0.4641588032245636
0.4114847779273987
0.3526237905025482
0.2888187766075134
0.22129207849502563
0.1511734426021576
0.07947251945734024
0.007085166871547699
-0.06517697125673294