# vtk DataFile Version 3.0
2D PINN Solution
ASCII
DATASET STRUCTURED_GRID
DIMENSIONS 100 100 1
POINTS 10000 float
-1.0 -1.0 0.0
-0.9797979797979798 -1.0 0.0
-0.9595959595959596 -1.0 0.0
-0.9393939393939394 -1.0 0.0
-0.9191919191919192 -1.0 0.0
-0.898989898989899 -1.0 0.0
-0.8787878787878788 -1.0 0.0
-0.8585858585858586 -1.0 0.0
-0.8383838383838383 -1.0 0.0
-0.8181818181818181 -1.0 0.0
-0.797979797979798 -1.0 0.0
-0.7777777777777778 -1.0 0.0
-0.7575757575757576 -1.0 0.0
-0.7373737373737373 -1.0 0.0
-0.7171717171717171 -1.0 0.0
-0.696969696969697 -1.0 0.0
-0.6767676767676767 -1.0 0.0
-0.6565656565656566 -1.0 0.0
-0.6363636363636364 -1.0 0.0
-0.6161616161616161 -1.0 0.0
-0.5959595959595959 -1.0 0.0
-0.5757575757575757 -1.0 0.0
-0.5555555555555556 -1.0 0.0
-0.5353535353535352 -1.0 0.0
-0.5151515151515151 -1.0 0.0
-0.4949494949494949 -1.0 0.0
-0.4747474747474747 -1.0 0.0
-0.4545454545454545 -1.0 0.0
-0.43434343434343425 -1.0 0.0
-0.41414141414141414 -1.0 0.0
-0.3939393939393939 -1.0 0.0
-0.3737373737373737 -1.0 0.0
-0.3535353535353535 -1.0 0.0
-0.33333333333333326 -1.0 0.0
-0.31313131313131304 -1.0 0.0
-0.2929292929292928 -1.0 0.0
-0.2727272727272727 -1.0 0.0
-0.2525252525252525 -1.0 0.0
-0.23232323232323226 -1.0 0.0
-0.21212121212121204 -1.0 0.0
-0.19191919191919182 -1.0 0.0
-0.1717171717171716 -1.0 0.0
-0.1515151515151515 -1.0 0.0
-0.13131313131313127 -1.0 0.0
-0.11111111111111105 -1.0 0.0
-0.09090909090909083 -1.0 0.0
-0.07070707070707061 -1.0 0.0
-0.050505050505050386 -1.0 0.0
-0.030303030303030276 -1.0 0.0
-0.010101010101010055 -1.0 0.0
0.010101010101010166 -1.0 0.0
0.030303030303030498 -1.0 0.0
0.05050505050505061 -1.0 0.0
0.07070707070707072 -1.0 0.0
0.09090909090909105 -1.0 0.0
0.11111111111111116 -1.0 0.0
0.1313131313131315 -1.0 0.0
0.1515151515151516 -1.0 0.0
0.1717171717171717 -1.0 0.0
0.19191919191919204 -1.0 0.0
0.21212121212121215 -1.0 0.0
0.2323232323232325 -1.0 0.0
0.2525252525252526 -1.0 0.0
0.27272727272727293 -1.0 0.0
0.29292929292929304 -1.0 0.0
0.31313131313131315 -1.0 0.0
0.3333333333333335 -1.0 0.0
0.3535353535353536 -1.0 0.0
0.3737373737373739 -1.0 0.0
0.39393939393939403 -1.0 0.0
0.41414141414141437 -1.0 0.0
0.4343434343434345 -1.0 0.0
0.4545454545454546 -1.0 0.0
0.4747474747474749 -1.0 0.0
0.49494949494949503 -1.0 0.0
0.5151515151515154 -1.0 0.0
0.5353535353535355 -1.0 0.0
0.5555555555555556 -1.0 0.0
0.5757575757575759 -1.0 0.0
0.595959595959596 -1.0 0.0
0.6161616161616164 -1.0 0.0
0.6363636363636365 -1.0 0.0
0.6565656565656568 -1.0 0.0
0.6767676767676769 -1.0 0.0
0.696969696969697 -1.0 0.0
0.7171717171717173 -1.0 0.0
0.7373737373737375 -1.0 0.0
0.7575757575757578 -1.0 0.0
0.7777777777777779 -1.0 0.0
0.7979797979797982 -1.0 0.0
0.8181818181818183 -1.0 0.0
0.8383838383838385 -1.0 0.0
0.8585858585858588 -1.0 0.0
0.8787878787878789 -1.0 0.0
0.8989898989898992 -1.0 0.0
0.9191919191919193 -1.0 0.0
0.9393939393939394 -1.0 0.0
0.9595959595959598 -1.0 0.0
0.9797979797979799 -1.0 0.0
1.0 -1.0 0.0
-1.0 -0.9797979797979798 0.0
-0.9797979797979798 -0.9797979797979798 0.0
-0.9595959595959596 -0.9797979797979798 0.0
-0.9393939393939394 -0.9797979797979798 0.0
-0.9191919191919192 -0.9797979797979798 0.0
-0.898989898989899 -0.9797979797979798 0.0
-0.8787878787878788 -0.9797979797979798 0.0
-0.8585858585858586 -0.9797979797979798 0.0
-0.8383838383838383 -0.9797979797979798 0.0
-0.8181818181818181 -0.9797979797979798 0.0
-0.797979797979798 -0.9797979797979798 0.0
-0.7777777777777778 -0.9797979797979798 0.0
-0.7575757575757576 -0.9797979797979798 0.0
-0.7373737373737373 -0.9797979797979798 0.0
-0.7171717171717171 -0.9797979797979798 0.0
-0.696969696969697 -0.9797979797979798 0.0
-0.6767676767676767 -0.9797979797979798 0.0
-0.6565656565656566 -0.9797979797979798 0.0
-0.6363636363636364 -0.9797979797979798 0.0
-0.6161616161616161 -0.9797979797979798 0.0
-0.5959595959595959 -0.9797979797979798 0.0
-0.5757575757575757 -0.9797979797979798 0.0
-0.5555555555555556 -0.9797979797979798 0.0
-0.5353535353535352 -0.9797979797979798 0.0
-0.5151515151515151 -0.9797979797979798 0.0
-0.4949494949494949 -0.9797979797979798 0.0
-0.4747474747474747 -0.9797979797979798 0.0
-0.4545454545454545 -0.9797979797979798 0.0
-0.43434343434343425 -0.9797979797979798 0.0
-0.41414141414141414 -0.9797979797979798 0.0
-0.3939393939393939 -0.9797979797979798 0.0
-0.3737373737373737 -0.9797979797979798 0.0
-0.3535353535353535 -0.9797979797979798 0.0
-0.33333333333333326 -0.9797979797979798 0.0
-0.31313131313131304 -0.9797979797979798 0.0
-0.2929292929292928 -0.9797979797979798 0.0
-0.2727272727272727 -0.9797979797979798 0.0
-0.2525252525252525 -0.9797979797979798 0.0
-0.23232323232323226 -0.9797979797979798 0.0
-0.21212121212121204 -0.9797979797979798 0.0
-0.19191919191919182 -0.9797979797979798 0.0
-0.1717171717171716 -0.9797979797979798 0.0
-0.1515151515151515 -0.9797979797979798 0.0
-0.13131313131313127 -0.9797979797979798 0.0
-0.11111111111111105 -0.9797979797979798 0.0
-0.09090909090909083 -0.9797979797979798 0.0
-0.07070707070707061 -0.9797979797979798 0.0
-0.050505050505050386 -0.9797979797979798 0.0
-0.030303030303030276 -0.9797979797979798 0.0
-0.010101010101010055 -0.9797979797979798 0.0
0.010101010101010166 -0.9797979797979798 0.0
0.030303030303030498 -0.9797979797979798 0.0
0.05050505050505061 -0.9797979797979798 0.0
0.07070707070707072 -0.9797979797979798 0.0
0.09090909090909105 -0.9797979797979798 0.0
0.11111111111111116 -0.9797979797979798 0.0
0.1313131313131315 -0.9797979797979798 0.0
0.1515151515151516 -0.9797979797979798 0.0
0.1717171717171717 -0.9797979797979798 0.0
0.19191919191919204 -0.9797979797979798 0.0
0.21212121212121215 -0.9797979797979798 0.0
0.2323232323232325 -0.9797979797979798 0.0
0.2525252525252526 -0.9797979797979798 0.0
0.27272727272727293 -0.9797979797979798 0.0
0.29292929292929304 -0.9797979797979798 0.0
0.31313131313131315 -0.9797979797979798 0.0
0.3333333333333335 -0.9797979797979798 0.0
0.3535353535353536 -0.9797979797979798 0.0
0.3737373737373739 -0.9797979797979798 0.0
0.39393939393939403 -0.9797979797979798 0.0
0.41414141414141437 -0.9797979797979798 0.0
0.4343434343434345 -0.9797979797979798 0.0
0.4545454545454546 -0.9797979797979798 0.0
0.4747474747474749 -0.9797979797979798 0.0
0.49494949494949503 -0.9797979797979798 0.0
0.5151515151515154 -0.9797979797979798 0.0
0.5353535353535355 -0.9797979797979798 0.0
0.5555555555555556 -0.9797979797979798 0.0
0.5757575757575759 -0.9797979797979798 0.0
0.595959595959596 -0.9797979797979798 0.0
0.6161616161616164 -0.9797979797979798 0.0
0.6363636363636365 -0.9797979797979798 0.0
0.6565656565656568 -0.9797979797979798 0.0
0.6767676767676769 -0.9797979797979798 0.0
0.696969696969697 -0.9797979797979798 0.0
0.7171717171717173 -0.9797979797979798 0.0
0.7373737373737375 -0.9797979797979798 0.0
0.7575757575757578 -0.9797979797979798 0.0
0.7777777777777779 -0.9797979797979798 0.0
0.7979797979797982 -0.9797979797979798 0.0
0.8181818181818183 -0.9797979797979798 0.0
0.8383838383838385 -0.9797979797979798 0.0
0.8585858585858588 -0.9797979797979798 0.0
0.8787878787878789 -0.9797979797979798 0.0
0.8989898989898992 -0.9797979797979798 0.0
0.9191919191919193 -0.9797979797979798 0.0
0.9393939393939394 -0.9797979797979798 0.0
0.9595959595959598 -0.9797979797979798 0.0
0.9797979797979799 -0.9797979797979798 0.0
1.0 -0.9797979797979798 0.0
-1.0 -0.9595959595959596 0.0
-0.9797979797979798 -0.9595959595959596 0.0
-0.9595959595959596 -0.9595959595959596 0.0
-0.9393939393939394 -0.9595959595959596 0.0
-0.9191919191919192 -0.9595959595959596 0.0
-0.898989898989899 -0.9595959595959596 0.0
-0.8787878787878788 -0.9595959595959596 0.0
-0.8585858585858586 -0.9595959595959596 0.0
-0.8383838383838383 -0.9595959595959596 0.0
-0.8181818181818181 -0.9595959595959596 0.0
-0.797979797979798 -0.9595959595959596 0.0
-0.7777777777777778 -0.9595959595959596 0.0
-0.7575757575757576 -0.9595959595959596 0.0
-0.7373737373737373 -0.9595959595959596 0.0
-0.7171717171717171 -0.9595959595959596 0.0
-0.696969696969697 -0.9595959595959596 0.0
-0.6767676767676767 -0.9595959595959596 0.0
-0.6565656565656566 -0.9595959595959596 0.0
-0.6363636363636364 -0.9595959595959596 0.0
-0.6161616161616161 -0.9595959595959596 0.0
-0.5959595959595959 -0.9595959595959596 0.0
-0.5757575757575757 -0.9595959595959596 0.0
-0.5555555555555556 -0.9595959595959596 0.0
-0.5353535353535352 -0.9595959595959596 0.0
-0.5151515151515151 -0.9595959595959596 0.0
-0.4949494949494949 -0.9595959595959596 0.0
-0.4747474747474747 -0.9595959595959596 0.0
-0.4545454545454545 -0.9595959595959596 0.0
-0.43434343434343425 -0.9595959595959596 0.0
-0.41414141414141414 -0.9595959595959596 0.0
-0.3939393939393939 -0.9595959595959596 0.0
-0.3737373737373737 -0.9595959595959596 0.0
-0.3535353535353535 -0.9595959595959596 0.0
-0.33333333333333326 -0.9595959595959596 0.0
-0.31313131313131304 -0.9595959595959596 0.0
-0.2929292929292928 -0.9595959595959596 0.0
-0.2727272727272727 -0.9595959595959596 0.0
-0.2525252525252525 -0.9595959595959596 0.0
-0.23232323232323226 -0.9595959595959596 0.0
-0.21212121212121204 -0.9595959595959596 0.0
-0.19191919191919182 -0.9595959595959596 0.0
-0.1717171717171716 -0.9595959595959596 0.0
-0.1515151515151515 -0.9595959595959596 0.0
-0.13131313131313127 -0.9595959595959596 0.0
-0.11111111111111105 -0.9595959595959596 0.0
-0.09090909090909083 -0.9595959595959596 0.0
-0.07070707070707061 -0.9595959595959596 0.0
-0.050505050505050386 -0.9595959595959596 0.0
-0.030303030303030276 -0.9595959595959596 0.0
-0.010101010101010055 -0.9595959595959596 0.0
0.010101010101010166 -0.9595959595959596 0.0
0.030303030303030498 -0.9595959595959596 0.0
0.05050505050505061 -0.9595959595959596 0.0
0.07070707070707072 -0.9595959595959596 0.0
0.09090909090909105 -0.9595959595959596 0.0
0.11111111111111116 -0.9595959595959596 0.0
0.1313131313131315 -0.9595959595959596 0.0
0.1515151515151516 -0.9595959595959596 0.0
0.1717171717171717 -0.9595959595959596 0.0
0.19191919191919204 -0.9595959595959596 0.0
0.21212121212121215 -0.9595959595959596 0.0
[...]
POINT_DATA 10000
SCALARS u float 1
LOOKUP_TABLE default
0.0824631080031395
0.10839416831731796
0.13209283351898193
0.153753399848938
0.17357811331748962
0.19169768691062927
0.2080971896648407
0.22255238890647888
0.23462358117103577
0.24368995428085327
0.24904367327690125
0.2500172257423401
0.2461150586605072
0.23711824417114258
0.2231428325176239
0.20464235544204712
0.18235453963279724
0.15721318125724792
0.13024303317070007
0.10244087129831314
0.0746690109372139
0.04756670445203781
0.02148795872926712
-0.003522641956806183
-0.02770955115556717
-0.05154203623533249
-0.0755990520119667
-0.10041534155607224
-0.1263050138950348
-0.15320166945457458
-0.18054422736167908
-0.20725849270820618
-0.23186221718788147
-0.2526646554470062
-0.26804864406585693
-0.27672722935676575
-0.27794724702835083
-0.2715732455253601
-0.2580634355545044
-0.23835504055023193
-0.2137068212032318
-0.18551641702651978
-0.15516650676727295
-0.12389027327299118
-0.09268287569284439
-0.062245823442935944
-0.03297445923089981
-0.004981823265552521
0.02184363454580307
0.047747693955898285
0.07300574332475662
0.09781696647405624
0.12221615761518478
0.1460254192352295
0.16885218024253845
0.19012239575386047
0.2091594636440277
0.22526144981384277
0.23778176307678223
0.2461811900138855
0.2500658333301544
0.2492169737815857
0.24360394477844238
0.23338323831558228
0.21886858344078064
0.20049124956130981
0.17873460054397583
0.15408936142921448
0.12702268362045288
0.09798070043325424
0.06740201264619827
0.03574252873659134
0.0034906193614006042
-0.02882596105337143
-0.06064277142286301
-0.09137443453073502
-0.12043599039316177
-0.1472741961479187
-0.17139482498168945
-0.1923956573009491
-0.20998737215995789
-0.22400447726249695
-0.23440301418304443
-0.24124068021774292
-0.24464493989944458
-0.24477419257164001
-0.24177739024162292
-0.2357657253742218
-0.22679036855697632
-0.21483945846557617
-0.19984087347984314
-0.18168166279792786
-0.16021573543548584
-0.13529151678085327
-0.10676384717226028
-0.07451272755861282
-0.03845120221376419
0.0014585629105567932
0.04519770294427872
0.09267628937959671
0.10586269944906235
0.14648327231407166
0.18506449460983276
0.22145572304725647
0.2554135322570801
0.2865575850009918
0.31433168053627014
0.33801862597465515
0.35679110884666443
0.36980319023132324
0.3763110935688019
0.37578609585762024
0.3680070638656616
0.35310208797454834
0.3315471112728119
0.3041154742240906
0.2718048095703125
0.2357402741909027
0.19707578420639038
0.15688836574554443
0.11609139293432236
0.07536255568265915
0.03509961813688278
-0.004592336714267731
-0.04384910315275192
-0.08296430855989456
-0.12225503474473953
-0.16188570857048035
-0.20171329379081726
-0.24115726351737976
-0.27915850281715393
-0.31425127387046814
-0.3447324335575104
-0.368913471698761
-0.3853718936443329
-0.39314568042755127
-0.39184534549713135
-0.3816467821598053
-0.3632223904132843
-0.3375994861125946
-0.3060225546360016
-0.2698107361793518
-0.23024463653564453
-0.18847516179084778
-0.1454659104347229
-0.10195735841989517
-0.05846140533685684
-0.015285305678844452
0.027410469949245453
0.06953727453947067
0.11097782105207443
0.15150511264801025
0.19071567058563232
0.2280239760875702
0.262688010931015
0.29387935996055603
0.3207717835903168
0.34260764718055725
0.3587518036365509
0.36871370673179626
0.37215638160705566
0.36891087889671326
0.3589913845062256
0.3426181375980377
0.3202124238014221
0.2923726737499237
0.25981560349464417
0.22330471873283386
0.18358999490737915
0.141375333070755
0.09731058031320572
0.05200750380754471
0.006060101091861725
-0.039933301508426666
-0.08535798639059067
-0.1295744776725769
-0.17192363739013672
-0.21173441410064697
-0.24834227561950684
-0.28111186623573303
-0.30946114659309387
-0.3328864872455597
-0.35098573565483093
-0.3634742796421051
-0.3701910972595215
-0.37109604477882385
-0.3662596642971039
-0.35584399104118347
-0.3400809168815613
-0.31924691796302795
-0.29363712668418884
-0.2635517418384552
-0.22926947474479675
-0.19104382395744324
-0.1491023302078247
-0.10363944619894028
-0.05483425408601761
-0.002859465777873993
0.05209963768720627
0.10982906073331833
0.12738794088363647
0.1826263964176178
0.235948383808136
0.28678739070892334
0.3344101905822754
0.37790125608444214
0.41619861125946045
0.4481634497642517
0.4726956784725189
0.48885467648506165
0.49598199129104614
0.493772953748703
0.48231151700019836
0.462046355009079
0.4337429404258728
0.39839643239974976
0.3571561574935913
0.3112308382987976
0.261812299489975
0.20999211072921753
0.15669715404510498
0.10263999551534653
0.04828677326440811
-0.006127871572971344
-0.060541994869709015
-0.1149626150727272
-0.16931796073913574
-0.2233036756515503
-0.27625253796577454
-0.3270755112171173
-0.37430867552757263
-0.4162500202655792
-0.45118507742881775
-0.47761234641075134
-0.4944402277469635
-0.5010905265808105
-0.49751773476600647
-0.4841386377811432
-0.46172651648521423
-0.4312877655029297
-0.39394327998161316
-0.3508397340774536
-0.3030814230442047
-0.2516835331916809
-0.19754737615585327
-0.14145073294639587
-0.08404826372861862
-0.025893278419971466
0.03251463919878006
0.09067260473966599
0.14800134301185608
0.20379748940467834
0.2572082281112671
0.3072595000267029
0.35291704535484314
0.39317628741264343
0.4271329939365387
0.4540421664714813
0.47332310676574707
0.4845622479915619
0.4874926507472992
0.48199662566185
0.46812665462493896
0.4461362957954407
0.4165061414241791
0.3799414038658142
0.33732926845550537
0.289661169052124
0.23795202374458313
0.18316510319709778
0.12618130445480347
0.06779340654611588
0.008723102509975433
-0.050344549119472504
-0.10873401910066605
-0.16575300693511963
-0.2206762731075287
-0.27273377776145935
-0.32111743092536926
-0.36499258875846863
-0.4035201966762543
-0.43589815497398376
-0.46139755845069885
-0.4794067442417145
-0.48947814106941223
-0.49135902523994446
-0.4850073754787445
-0.4705940783023834
-0.44848451018333435
-0.4191979169845581
-0.38336774706840515
-0.34168267250061035
-0.29484274983406067
-0.24351415038108826
-0.18830689787864685
-0.12975910305976868
-0.06833788007497787
-0.004452221095561981
0.06152602285146713
0.1292402446269989
0.14745396375656128
0.2169605791568756
0.28450390696525574
0.3490503132343292
0.40935948491096497
0.4640193283557892
0.5115438103675842
0.5505039691925049
0.5796732306480408
0.5981586575508118
0.605482280254364
0.6016080975532532
0.5869075655937195
0.5620884299278259
0.5281091332435608
0.48607900738716125
0.43718650937080383
0.3826252520084381
0.3235410451889038
0.260981947183609
0.19585993885993958
0.1289249062538147
0.06075572222471237
-0.008208043873310089
-0.07759944349527359
-0.14701303839683533
-0.21587970852851868
-0.28334638476371765
-0.3482144773006439
-0.4089621603488922
-0.46386054158210754
-0.511165976524353
-0.5493294596672058
-0.5771760940551758
-0.5940043330192566
-0.5996084213256836
-0.5942158699035645
-0.5783876776695251
-0.5529031157493591
-0.5186563730239868
-0.4765714704990387
-0.4275657832622528
-0.37252143025398254
-0.3122919201850891
-0.24770808219909668
-0.17959517240524292
-0.10878432542085648
-0.03613085299730301
0.037465862929821014
0.11102461069822311
0.1834639012813568
0.2535911798477173
0.32013246417045593
0.38179078698158264
0.4373278021812439
0.48564010858535767
0.5258218050003052
0.5571723580360413
0.5791885256767273
0.5915327072143555
0.5940053462982178
0.586539089679718
0.5692182183265686
0.5423166155815125
0.5063372254371643
0.4620344042778015
0.4103921055793762
0.3525596857070923
0.28976404666900635
0.22321206331253052
0.15402427315711975
0.08320160955190659
0.011631764471530914
-0.059878624975681305
-0.1305653154850006
-0.1996612250804901
-0.26636630296707153
-0.32981523871421814
-0.3890732228755951
-0.44313719868659973
-0.49096134305000305
-0.5314967036247253
-0.5637449026107788
-0.5868279337882996
-0.6000508069992065
-0.6029645204544067
-0.5954059362411499
-0.5775209665298462
-0.5497477054595947
-0.5127851366996765
-0.46752986311912537
-0.41500774025917053
-0.356294721364975
-0.2924507260322571
-0.22446966171264648
-0.15324485301971436
-0.0795588567852974
-0.0040851011872291565
0.07258933037519455
0.14993855357170105
0.1663954257965088
0.24946224689483643
0.33027613162994385
0.4073180854320526
0.4788683354854584
0.5431069731712341
0.5982633829116821
0.642776608467102
0.6754492521286011
0.6955444812774658
0.7028230428695679
0.6975103616714478
0.6802127957344055
0.6518087387084961
0.6133462190628052
0.5659472942352295
0.510742723941803
0.4488282799720764
0.3812386393547058
0.3089309632778168
0.2327861785888672
0.1536044478416443
0.07213076204061508
-0.01090586930513382
-0.09472089260816574
-0.1783883273601532
-0.260758638381958
-0.34040793776512146
-0.4156636595726013
-0.4846992790699005
-0.5457032918930054
-0.5970655679702759
-0.6375376582145691
-0.6663284301757812
-0.6831172108650208
-0.6879977583885193
-0.6813763976097107
-0.6638613939285278
-0.6361525654792786
-0.5989673733711243
-0.5529983043670654
-0.49890342354774475
-0.437337726354599
-0.36899054050445557
-0.2946396768093109
-0.21518489718437195
-0.1316753625869751
-0.04531506448984146
0.04254361242055893
0.13041168451309204
0.2166995406150818
0.29976263642311096
0.3779747784137726
0.44980865716934204
0.5139152407646179
0.5691757798194885
0.6147206425666809
0.6499174237251282
0.6743316650390625
0.6876909136772156
0.6898487210273743
0.6807830929756165
0.6606082320213318
0.6296128034591675
0.588302493095398
0.5374325513839722
0.4780103266239166
0.4112623929977417
0.3385511636734009
0.2612767517566681
0.1807873249053955
0.09831468015909195
0.01495448499917984
-0.06831482797861099
-0.1505909562110901
-0.23099392652511597
-0.30862003564834595
-0.38249966502189636
-0.45157870650291443
-0.5147164463996887
-0.5707067847251892
-0.618324339389801
-0.6563838720321655
-0.683817446231842
-0.6997570991516113
-0.7036030888557434
-0.6950890421867371
-0.6743094325065613
-0.6417242884635925
-0.5981277823448181
-0.5445894598960876
-0.48238250613212585
-0.4128856956958771
-0.337505042552948
-0.2575945556163788
-0.17440590262413025
-0.08905292302370071
-0.0025070086121559143
0.0843948945403099
0.17092472314834595
0.18438327312469482
0.2798788845539093
0.37255722284317017
0.460431843996048
0.5413942933082581
0.6133549213409424
0.6744236946105957
0.7230677008628845
0.7582396864891052
0.779424786567688
0.7866260409355164
0.7802819609642029
0.7611510157585144
0.7301906943321228
0.6884437203407288
0.6369591355323792
0.5767384171485901
0.5087209939956665
0.43378451466560364
0.35277611017227173
0.2665368318557739
0.17594939470291138
0.0819820687174797
-0.014261864125728607
-0.11148836463689804
-0.20817479491233826
-0.3025656044483185
-0.3927149474620819
-0.47659096121788025
-0.5522316098213196
-0.617915153503418
-0.6722950339317322
-0.7144882082939148
-0.7440757155418396
-0.7610462307929993
-0.7656918168067932
-0.7584977746009827
-0.7400251030921936
-0.7108334898948669
-0.67142653465271
-0.6222478747367859
-0.5637070536613464
-0.4962488114833832
-0.4204346239566803
-0.3370245397090912
-0.24704045057296753
-0.1517919898033142
-0.0528683140873909
0.04790510982275009
0.1485426425933838
0.24698886275291443
0.34122446179389954
0.42936936020851135
0.509768009185791
0.5810415744781494
0.6421070694923401
0.6921581029891968
0.73062664270401
0.7571321725845337
0.7714486718177795
0.773471474647522
0.7632149457931519
0.7408252358436584
0.7066035866737366
0.6610472798347473
0.6048828363418579
0.5390859842300415
0.4648730456829071
0.3836539685726166
0.29694798588752747
0.2062900960445404
0.1131424829363823
0.018843136727809906
-0.07539951056241989
-0.16848361492156982
-0.2593581974506378
-0.34697481989860535
-0.43023425340652466
-0.5079649686813354
-0.5789141654968262
-0.64177006483078
-0.6952008605003357
-0.7379261255264282
-0.768784761428833
-0.7868221402168274
-0.7913582921028137
-0.7820566296577454
-0.7589554190635681
-0.7224902510643005
-0.6734721064567566
-0.6130447387695312
-0.5426186919212341
-0.4637828767299652
-0.3782077729701996
-0.2875652313232422
-0.19344201683998108
-0.09729594737291336
-0.00041668862104415894
0.09607119113206863
0.19120395183563232
0.201345294713974
0.3076781630516052
0.41036778688430786
0.5070468783378601
0.5953486561775208
0.6730795502662659
0.7383909821510315
0.789906919002533
0.8268009424209595
0.848788857460022
0.8560711145401001
0.8492218852043152
0.8290653228759766
0.7965441346168518
0.7526222467422485
0.6982132792472839
0.6341456770896912
0.5611709952354431
0.47999876737594604
0.39136064052581787
0.29608386754989624
0.19517263770103455
0.08987843245267868
-0.01825282722711563
-0.12736192345619202
-0.2353200614452362
-0.33981284499168396
-0.4384836256504059
-0.5291059017181396
-0.6097474098205566
-0.6789031028747559
-0.7355592846870422
-0.7791846394538879
-0.8096666932106018
-0.8272016048431396
-0.8321739435195923
-0.8250452876091003
-0.8062618374824524
-0.7761952877044678
-0.7351217865943909
-0.6832449436187744
-0.6207583546638489
-0.5479463934898376
-0.465299516916275
-0.3736235797405243
-0.27411559224128723
-0.16838493943214417
-0.05841878801584244
0.05351056903600693
0.1649799942970276
0.2735600471496582
0.37696558237075806
0.4731667935848236
0.5604605674743652
0.6374937891960144
0.7032420039176941
0.756959855556488
0.7981297373771667
0.8264133930206299
0.8416157960891724
0.8436670303344727
0.8326159119606018
0.8086365461349487
0.7720454335212708
0.7233278155326843
0.6631624102592468
0.592454731464386
0.5123493075370789
0.4242161214351654
0.32960566878318787
0.2301677167415619
0.1275635063648224
0.023387156426906586
-0.08087628334760666
-0.1838560700416565
-0.28426510095596313
-0.3808518946170807
-0.47235867381095886
-0.5574870705604553
-0.6348987221717834
-0.703219473361969
-0.7610931992530823
-0.8072310090065002
-0.8404775261878967
-0.8598830103874207
-0.8647627234458923
-0.8547530174255371
-0.8298532366752625
-0.7904414534568787
-0.737282931804657
-0.6715021133422852
-0.5945394039154053
-0.5080792307853699
-0.41396793723106384
-0.31411752104759216
-0.21041271090507507
-0.10463700443506241
0.0015817955136299133
0.10681184381246567
0.20981556177139282
0.21692568063735962
0.33205315470695496
0.4425298273563385
0.5457409024238586
0.6392249464988708
0.7208431363105774
0.7889180183410645
0.8423027992248535
0.8804014921188354
0.9031218886375427
0.9107850193977356
0.9040122032165527
0.8836005330085754
0.850408673286438
0.8052646517753601
0.7489113807678223
0.681987464427948
0.6050589680671692
0.5186828970909119
0.42350780963897705
0.3203904926776886
0.21051025390625
0.09545540064573288
-0.022753186523914337
-0.14170140027999878
-0.25871601700782776
-0.37105095386505127
-0.4761030375957489
-0.5716176629066467
-0.6558244228363037
-0.7274989485740662
-0.7859514355659485
-0.8309390544891357
-0.8625528216362
-0.8810871839523315
-0.8869174122810364
-0.8804050087928772
-0.8618257641792297
-0.8313413858413696
-0.7890039682388306
-0.7348077297210693
-0.6687857508659363
-0.5911338329315186
-0.5023481249809265
-0.40335866808891296
-0.2955907881259918
-0.18097296357154846
-0.06186322122812271
0.05909421294927597
0.17914745211601257
0.2956252694129944
0.40609216690063477
0.5084574222564697
0.6010237336158752
0.6824762225151062
0.7518384456634521
0.8084098696708679
0.8517100811004639
0.8814293742179871
0.8974034786224365
0.8995955586433411
0.8880895972251892
0.8630893230438232
0.8249255418777466
0.7740668058395386
0.711140513420105
0.6369635462760925
0.5525676012039185
0.45921918749809265
0.35841354727745056
0.2518312335014343
0.14127063751220703
0.028556935489177704
-0.08452797681093216
-0.19628998637199402
-0.3051392138004303
-0.4095613360404968
-0.5080975890159607
-0.5993126630783081
-0.6817948222160339
-0.7541630864143372
-0.8150976896286011
-0.8633864521980286
-0.8979673981666565
-0.9179782271385193
-0.9228000640869141
-0.9120962023735046
-0.885842502117157
-0.8443577289581299
-0.7883158326148987
-0.7187503576278687
-0.6370351314544678
-0.5448470711708069
-0.4440968930721283
-0.3368487060070038
-0.2252194583415985
-0.11128287762403488
0.0030128583312034607
0.11590684205293655
0.2258678376674652
0.23050063848495483
0.35199037194252014
0.4677779972553253
0.5751597285270691
0.6717404723167419
0.7555668950080872
0.8251981139183044
0.879729688167572
0.9187572598457336
0.9423030614852905
0.950719952583313
0.9445863366127014
0.9245964884757996
0.8914670944213867
0.8458577394485474
0.7883283495903015
0.7193436026573181
0.6393131613731384
0.5486918091773987
0.4481082856655121
0.3385150730609894
0.22132590413093567
0.0984908863902092
-0.02751130610704422
-0.1537993848323822
-0.2772977650165558
-0.39501258730888367
-0.5042815804481506
-0.602961003780365
-0.6895087361335754
-0.7629818320274353
-0.8229443430900574
-0.8693391680717468
-0.9023507237434387
-0.9222679734230042
-0.9293746948242188
-0.9238752126693726
-0.9058489799499512
-0.8752420544624329
-0.8319081664085388
-0.7756839990615845
-0.7065110802650452
-0.6245864033699036
-0.5305092334747314
-0.42539820075035095
-0.31094855070114136
-0.18939292430877686
-0.06338300555944443
0.06418506056070328
0.1903838813304901
0.3124351501464844
0.42786380648612976
0.5345795750617981
0.630901038646698
0.7155325412750244
0.7875164747238159
0.8461679816246033
0.8910269141197205
0.9218119382858276
0.9383922219276428
0.9407728314399719
0.9290750622749329
0.9035360217094421
0.8644972443580627
0.8124118447303772
0.7478563189506531
0.6715545058250427
0.5844125151634216
0.48756030201911926
0.3823740482330322
0.27048754692077637
0.15374809503555298
0.034153811633586884
-0.08623757213354111
-0.20539218187332153
-0.3213660418987274
-0.4323321282863617
-0.5365834832191467
-0.6325328946113586
-0.7187064290046692
-0.7937484979629517
-0.8564333915710449
-0.9056908488273621
-0.9406214356422424
-0.9605174660682678
-0.9648842215538025
-0.9534561038017273
-0.926217257976532
-0.8834337592124939
-0.825672447681427
-0.7538305521011353
-0.6691476702690125
-0.5731980800628662
-0.4678592383861542
-0.3552436828613281
-0.23761293292045593
-0.117268867790699
0.0035534724593162537
0.1227806881070137
0.2385750412940979
0.2412390112876892
0.36640042066574097
0.4849189817905426
0.5941752791404724
0.6919682025909424
0.7765932679176331
0.8468634486198425
0.9020729064941406
0.9419313669204712
0.9664872288703918
0.9760326147079468
0.9710243344306946
0.9519945383071899
0.9194762110710144
0.8739485144615173
0.8158035278320312
0.7453665137290955
0.6629582047462463
0.5690099596977234
0.4642215669155121
0.34972134232521057
0.22720086574554443
0.09896241873502731
-0.03215048462152481
-0.16294226050376892
-0.29015058279037476
-0.41074058413505554
-0.5221555829048157
-0.6224520802497864
-0.7103281021118164
-0.7850524187088013
-0.8463414311408997
-0.8942051529884338
-0.9288114905357361
-0.9503588080406189
-0.9589824080467224
-0.9546990990638733
-0.937383234500885
-0.9067893028259277
-0.8626176714897156
-0.8046165108680725
-0.7327283620834351
-0.6472452282905579
-0.5489529371261597
-0.4392215311527252
-0.32000991702079773
-0.19379141926765442
-0.06339234858751297
0.06819965690374374
0.1980329155921936
0.3233581781387329
0.44173792004585266
0.5511056780815125
0.6497825384140015
0.7364559173583984
0.8101430535316467
0.8701474070549011
0.9160118699073792
0.9474812746047974
0.9644683003425598
0.9670258164405823
0.9553223252296448
0.9296279549598694
0.8902975916862488
0.8377701044082642
0.772575318813324
0.6953520178794861
0.6068889498710632
0.5081721544265747
0.4004356563091278
0.28520241379737854
0.16429266333580017
0.039788030087947845
-0.08604329079389572
-0.21086245775222778
-0.33236458897590637
-0.4483766257762909
-0.5569151043891907
-0.6562157273292542
-0.7447419166564941
-0.821182131767273
-0.8844409584999084
-0.933633029460907
-0.9680634140968323
-0.9872284531593323
-0.9907943606376648
-0.9786055684089661
-0.9506883025169373
-0.9072698950767517
-0.848820149898529
-0.7760844230651855
-0.6901286244392395
-0.5923614501953125
-0.48453715443611145
-0.36872225999832153
-0.24722185730934143
-0.12247879058122635
0.0030495449900627136
0.12701576948165894
0.24729159474372864
0.2482302486896515
0.3742738664150238
0.49300429224967957
0.60202556848526