# vtk DataFile Version 3.0
2D PINN Solution
ASCII
DATASET STRUCTURED_GRID
DIMENSIONS 100 100 1
POINTS 10000 float
-1.0 -1.0 0.0
-0.9797979797979798 -1.0 0.0
-0.9595959595959596 -1.0 0.0
-0.9393939393939394 -1.0 0.0
-0.9191919191919192 -1.0 0.0
-0.898989898989899 -1.0 0.0
-0.8787878787878788 -1.0 0.0
-0.8585858585858586 -1.0 0.0
-0.8383838383838383 -1.0 0.0
-0.8181818181818181 -1.0 0.0
-0.797979797979798 -1.0 0.0
-0.7777777777777778 -1.0 0.0
-0.7575757575757576 -1.0 0.0
-0.7373737373737373 -1.0 0.0
-0.7171717171717171 -1.0 0.0
-0.696969696969697 -1.0 0.0
-0.6767676767676767 -1.0 0.0
-0.6565656565656566 -1.0 0.0
-0.6363636363636364 -1.0 0.0
-0.6161616161616161 -1.0 0.0
-0.5959595959595959 -1.0 0.0
-0.5757575757575757 -1.0 0.0
-0.5555555555555556 -1.0 0.0
-0.5353535353535352 -1.0 0.0
-0.5151515151515151 -1.0 0.0
-0.4949494949494949 -1.0 0.0
-0.4747474747474747 -1.0 0.0
-0.4545454545454545 -1.0 0.0
-0.43434343434343425 -1.0 0.0
-0.41414141414141414 -1.0 0.0
-0.3939393939393939 -1.0 0.0
-0.3737373737373737 -1.0 0.0
-0.3535353535353535 -1.0 0.0
-0.33333333333333326 -1.0 0.0
-0.31313131313131304 -1.0 0.0
-0.2929292929292928 -1.0 0.0
-0.2727272727272727 -1.0 0.0
-0.2525252525252525 -1.0 0.0
-0.23232323232323226 -1.0 0.0
-0.21212121212121204 -1.0 0.0
-0.19191919191919182 -1.0 0.0
-0.1717171717171716 -1.0 0.0
-0.1515151515151515 -1.0 0.0
-0.13131313131313127 -1.0 0.0
-0.11111111111111105 -1.0 0.0
-0.09090909090909083 -1.0 0.0
-0.07070707070707061 -1.0 0.0
-0.050505050505050386 -1.0 0.0
-0.030303030303030276 -1.0 0.0
-0.010101010101010055 -1.0 0.0
0.010101010101010166 -1.0 0.0
0.030303030303030498 -1.0 0.0
0.05050505050505061 -1.0 0.0
0.07070707070707072 -1.0 0.0
0.09090909090909105 -1.0 0.0
0.11111111111111116 -1.0 0.0
0.1313131313131315 -1.0 0.0
0.1515151515151516 -1.0 0.0
0.1717171717171717 -1.0 0.0
0.19191919191919204 -1.0 0.0
0.21212121212121215 -1.0 0.0
0.2323232323232325 -1.0 0.0
0.2525252525252526 -1.0 0.0
0.27272727272727293 -1.0 0.0
0.29292929292929304 -1.0 0.0
0.31313131313131315 -1.0 0.0
0.3333333333333335 -1.0 0.0
0.3535353535353536 -1.0 0.0
0.3737373737373739 -1.0 0.0
0.39393939393939403 -1.0 0.0
0.41414141414141437 -1.0 0.0
0.4343434343434345 -1.0 0.0
0.4545454545454546 -1.0 0.0
0.4747474747474749 -1.0 0.0
0.49494949494949503 -1.0 0.0
0.5151515151515154 -1.0 0.0
0.5353535353535355 -1.0 0.0
0.5555555555555556 -1.0 0.0
0.5757575757575759 -1.0 0.0
0.595959595959596 -1.0 0.0
0.6161616161616164 -1.0 0.0
0.6363636363636365 -1.0 0.0
0.6565656565656568 -1.0 0.0
0.6767676767676769 -1.0 0.0
0.696969696969697 -1.0 0.0
0.7171717171717173 -1.0 0.0
0.7373737373737375 -1.0 0.0
0.7575757575757578 -1.0 0.0
0.7777777777777779 -1.0 0.0
0.7979797979797982 -1.0 0.0
0.8181818181818183 -1.0 0.0
0.8383838383838385 -1.0 0.0
0.8585858585858588 -1.0 0.0
0.8787878787878789 -1.0 0.0
0.8989898989898992 -1.0 0.0
0.9191919191919193 -1.0 0.0
0.9393939393939394 -1.0 0.0
0.9595959595959598 -1.0 0.0
0.9797979797979799 -1.0 0.0
1.0 -1.0 0.0
-1.0 -0.9797979797979798 0.0
-0.9797979797979798 -0.9797979797979798 0.0
-0.9595959595959596 -0.9797979797979798 0.0
-0.9393939393939394 -0.9797979797979798 0.0
-0.9191919191919192 -0.9797979797979798 0.0
-0.898989898989899 -0.9797979797979798 0.0
-0.8787878787878788 -0.9797979797979798 0.0
-0.8585858585858586 -0.9797979797979798 0.0
-0.8383838383838383 -0.9797979797979798 0.0
-0.8181818181818181 -0.9797979797979798 0.0
-0.797979797979798 -0.9797979797979798 0.0
-0.7777777777777778 -0.9797979797979798 0.0
-0.7575757575757576 -0.9797979797979798 0.0
-0.7373737373737373 -0.9797979797979798 0.0
-0.7171717171717171 -0.9797979797979798 0.0
-0.696969696969697 -0.9797979797979798 0.0
-0.6767676767676767 -0.9797979797979798 0.0
-0.6565656565656566 -0.9797979797979798 0.0
-0.6363636363636364 -0.9797979797979798 0.0
-0.6161616161616161 -0.9797979797979798 0.0
-0.5959595959595959 -0.9797979797979798 0.0
-0.5757575757575757 -0.9797979797979798 0.0
-0.5555555555555556 -0.9797979797979798 0.0
-0.5353535353535352 -0.9797979797979798 0.0
-0.5151515151515151 -0.9797979797979798 0.0
-0.4949494949494949 -0.9797979797979798 0.0
-0.4747474747474747 -0.9797979797979798 0.0
-0.4545454545454545 -0.9797979797979798 0.0
-0.43434343434343425 -0.9797979797979798 0.0
-0.41414141414141414 -0.9797979797979798 0.0
-0.3939393939393939 -0.9797979797979798 0.0
-0.3737373737373737 -0.9797979797979798 0.0
-0.3535353535353535 -0.9797979797979798 0.0
-0.33333333333333326 -0.9797979797979798 0.0
-0.31313131313131304 -0.9797979797979798 0.0
-0.2929292929292928 -0.9797979797979798 0.0
-0.2727272727272727 -0.9797979797979798 0.0
-0.2525252525252525 -0.9797979797979798 0.0
-0.23232323232323226 -0.9797979797979798 0.0
-0.21212121212121204 -0.9797979797979798 0.0
-0.19191919191919182 -0.9797979797979798 0.0
-0.1717171717171716 -0.9797979797979798 0.0
-0.1515151515151515 -0.9797979797979798 0.0
-0.13131313131313127 -0.9797979797979798 0.0
-0.11111111111111105 -0.9797979797979798 0.0
-0.09090909090909083 -0.9797979797979798 0.0
-0.07070707070707061 -0.9797979797979798 0.0
-0.050505050505050386 -0.9797979797979798 0.0
-0.030303030303030276 -0.9797979797979798 0.0
-0.010101010101010055 -0.9797979797979798 0.0
0.010101010101010166 -0.9797979797979798 0.0
0.030303030303030498 -0.9797979797979798 0.0
0.05050505050505061 -0.9797979797979798 0.0
0.07070707070707072 -0.9797979797979798 0.0
0.09090909090909105 -0.9797979797979798 0.0
0.11111111111111116 -0.9797979797979798 0.0
0.1313131313131315 -0.9797979797979798 0.0
0.1515151515151516 -0.9797979797979798 0.0
0.1717171717171717 -0.9797979797979798 0.0
0.19191919191919204 -0.9797979797979798 0.0
0.21212121212121215 -0.9797979797979798 0.0
0.2323232323232325 -0.9797979797979798 0.0
0.2525252525252526 -0.9797979797979798 0.0
0.27272727272727293 -0.9797979797979798 0.0
0.29292929292929304 -0.9797979797979798 0.0
0.31313131313131315 -0.9797979797979798 0.0
0.3333333333333335 -0.9797979797979798 0.0
0.3535353535353536 -0.9797979797979798 0.0
0.3737373737373739 -0.9797979797979798 0.0
0.39393939393939403 -0.9797979797979798 0.0
0.41414141414141437 -0.9797979797979798 0.0
0.4343434343434345 -0.9797979797979798 0.0
0.4545454545454546 -0.9797979797979798 0.0
0.4747474747474749 -0.9797979797979798 0.0
0.49494949494949503 -0.9797979797979798 0.0
0.5151515151515154 -0.9797979797979798 0.0
0.5353535353535355 -0.9797979797979798 0.0
0.5555555555555556 -0.9797979797979798 0.0
0.5757575757575759 -0.9797979797979798 0.0
0.595959595959596 -0.9797979797979798 0.0
0.6161616161616164 -0.9797979797979798 0.0
0.6363636363636365 -0.9797979797979798 0.0
0.6565656565656568 -0.9797979797979798 0.0
0.6767676767676769 -0.9797979797979798 0.0
0.696969696969697 -0.9797979797979798 0.0
0.7171717171717173 -0.9797979797979798 0.0
0.7373737373737375 -0.9797979797979798 0.0
0.7575757575757578 -0.9797979797979798 0.0
0.7777777777777779 -0.9797979797979798 0.0
0.7979797979797982 -0.9797979797979798 0.0
0.8181818181818183 -0.9797979797979798 0.0
0.8383838383838385 -0.9797979797979798 0.0
0.8585858585858588 -0.9797979797979798 0.0
0.8787878787878789 -0.9797979797979798 0.0
0.8989898989898992 -0.9797979797979798 0.0
0.9191919191919193 -0.9797979797979798 0.0
0.9393939393939394 -0.9797979797979798 0.0
0.9595959595959598 -0.9797979797979798 0.0
0.9797979797979799 -0.9797979797979798 0.0
1.0 -0.9797979797979798 0.0
-1.0 -0.9595959595959596 0.0
-0.9797979797979798 -0.9595959595959596 0.0
-0.9595959595959596 -0.9595959595959596 0.0
-0.9393939393939394 -0.9595959595959596 0.0
-0.9191919191919192 -0.9595959595959596 0.0
-0.898989898989899 -0.9595959595959596 0.0
-0.8787878787878788 -0.9595959595959596 0.0
-0.8585858585858586 -0.9595959595959596 0.0
-0.8383838383838383 -0.9595959595959596 0.0
-0.8181818181818181 -0.9595959595959596 0.0
-0.797979797979798 -0.9595959595959596 0.0
-0.7777777777777778 -0.9595959595959596 0.0
-0.7575757575757576 -0.9595959595959596 0.0
-0.7373737373737373 -0.9595959595959596 0.0
-0.7171717171717171 -0.9595959595959596 0.0
-0.696969696969697 -0.9595959595959596 0.0
-0.6767676767676767 -0.9595959595959596 0.0
-0.6565656565656566 -0.9595959595959596 0.0
-0.6363636363636364 -0.9595959595959596 0.0
-0.6161616161616161 -0.9595959595959596 0.0
-0.5959595959595959 -0.9595959595959596 0.0
-0.5757575757575757 -0.9595959595959596 0.0
-0.5555555555555556 -0.9595959595959596 0.0
-0.5353535353535352 -0.9595959595959596 0.0
-0.5151515151515151 -0.9595959595959596 0.0
-0.4949494949494949 -0.9595959595959596 0.0
-0.4747474747474747 -0.9595959595959596 0.0
-0.4545454545454545 -0.9595959595959596 0.0
-0.43434343434343425 -0.9595959595959596 0.0
-0.41414141414141414 -0.9595959595959596 0.0
-0.3939393939393939 -0.9595959595959596 0.0
-0.3737373737373737 -0.9595959595959596 0.0
-0.3535353535353535 -0.9595959595959596 0.0
-0.33333333333333326 -0.9595959595959596 0.0
-0.31313131313131304 -0.9595959595959596 0.0
-0.2929292929292928 -0.9595959595959596 0.0
-0.2727272727272727 -0.9595959595959596 0.0
-0.2525252525252525 -0.9595959595959596 0.0
-0.23232323232323226 -0.9595959595959596 0.0
-0.21212121212121204 -0.9595959595959596 0.0
-0.19191919191919182 -0.9595959595959596 0.0
-0.1717171717171716 -0.9595959595959596 0.0
-0.1515151515151515 -0.9595959595959596 0.0
-0.13131313131313127 -0.9595959595959596 0.0
-0.11111111111111105 -0.9595959595959596 0.0
-0.09090909090909083 -0.9595959595959596 0.0
-0.07070707070707061 -0.9595959595959596 0.0
-0.050505050505050386 -0.9595959595959596 0.0
-0.030303030303030276 -0.9595959595959596 0.0
-0.010101010101010055 -0.9595959595959596 0.0
0.010101010101010166 -0.9595959595959596 0.0
0.030303030303030498 -0.9595959595959596 0.0
0.05050505050505061 -0.9595959595959596 0.0
0.07070707070707072 -0.9595959595959596 0.0
0.09090909090909105 -0.9595959595959596 0.0
0.11111111111111116 -0.9595959595959596 0.0
0.1313131313131315 -0.9595959595959596 0.0
0.1515151515151516 -0.9595959595959596 0.0
0.1717171717171717 -0.9595959595959596 0.0
0.19191919191919204 -0.9595959595959596 0.0
0.21212121212121215 -0.9595959595959596 0.0
[...]
POINT_DATA 10000
SCALARS u float 1
LOOKUP_TABLE default
0.1457635760307312
0.18423056602478027
0.22050660848617554
0.25435781478881836
0.28540652990341187
0.313107967376709
0.3367488384246826
0.3555072844028473
0.3685387969017029
0.37509915232658386
0.37465569376945496
0.3669804036617279
0.35219696164131165
0.33077189326286316
0.3034747540950775
0.27129849791526794
0.23536694049835205
0.19683149456977844
0.1567700207233429
0.11609876900911331
0.07549800723791122
0.035363875329494476
-0.004192031919956207
-0.043305523693561554
-0.08227256685495377
-0.12141101807355881
-0.1608937680721283
-0.20058494806289673
-0.23991462588310242
-0.27783384919166565
-0.3128841817378998
-0.3433654010295868
-0.3675878942012787
-0.38412192463874817
-0.3919980525970459
-0.3908153474330902
-0.3807429075241089
-0.3624437749385834
-0.3369443118572235
-0.3054865300655365
-0.26939091086387634
-0.2299399971961975
-0.18828904628753662
-0.14540249109268188
-0.10202374309301376
-0.058665238320827484
-0.015636049211025238
0.026908017694950104
0.06887861341238022
0.11016412824392319
0.1505429744720459
0.18961983919143677
0.22681137919425964
0.261381059885025
0.29250603914260864
0.3193564713001251
0.34117838740348816
0.3573361933231354
0.36733755469322205
0.37084266543388367
0.3676823079586029
0.3578709661960602
0.34162381291389465
0.3193605840206146
0.2916748821735382
0.2592812776565552
0.22293928265571594
0.18339574337005615
0.14135318994522095
0.09745719283819199
0.05231783539056778
0.006527923047542572
-0.03931684046983719
-0.0846019759774208
-0.1286899745464325
-0.17092156410217285
-0.21062949299812317
-0.24714872241020203
-0.2798469364643097
-0.308141827583313
-0.33153489232063293
-0.34962403774261475
-0.362127423286438
-0.36888521909713745
-0.3698566257953644
-0.365111768245697
-0.35481253266334534
-0.33918607234954834
-0.3185049593448639
-0.2930622398853302
-0.26315081119537354
-0.2290467917919159
-0.19099971652030945
-0.14923086762428284
-0.10393353551626205
-0.05528280884027481
-0.003450445830821991
0.05137950927019119
0.10899635404348373
0.16913896799087524
0.1817883849143982
0.23499837517738342
0.2857320308685303
0.3332644999027252
0.3766861855983734
0.4149406850337982
0.4468960464000702
0.47145089507102966
0.4876656234264374
0.4948748052120209
0.49277082085609436
0.48142802715301514
0.46129322052001953
0.4331212341785431
0.39790865778923035
0.3567999601364136
0.31100326776504517
0.2617102861404419
0.21001648902893066
0.1568494439125061
0.1029232069849968
0.0487058088183403
-0.005566783249378204
-0.059834279119968414
-0.11410670727491379
-0.16831713914871216
-0.22216954827308655
-0.2750062942504883
-0.3257497251033783
-0.37294092774391174
-0.41488221287727356
-0.44985613226890564
-0.4763580858707428
-0.4932856857776642
-0.5000545382499695
-0.49660685658454895
-0.48335376381874084
-0.46106627583503723
-0.4307470917701721
-0.3935205042362213
-0.35053449869155884
-0.3028945028781891
-0.2516191899776459
-0.1976134479045868
-0.14165422320365906
-0.0843968614935875
-0.02639327198266983
0.031860776245594025
0.0898657813668251
0.14704981446266174
0.20271384716033936
0.2560093402862549
0.305968314409256
0.35155922174453735
0.391777366399765
0.42572060227394104
0.45264092087745667
0.4719575345516205
0.48325568437576294
0.4862680733203888
0.48087504506111145
0.46712762117385864
0.4452767074108124
0.41579899191856384
0.37939733266830444
0.33695343136787415
0.289457231760025
0.23791858553886414
0.18329986929893494
0.12647941708564758
0.06824751943349838
0.009326152503490448
-0.049602530896663666
-0.1078638806939125
-0.16476652026176453
-0.21958604454994202
-0.2715541124343872
-0.31986555457115173
-0.3636845052242279
-0.4021783769130707
-0.434543639421463
-0.46005329489707947
-0.4780997335910797
-0.488233357667923
-0.49020108580589294
-0.4839610159397125
-0.4696817696094513
-0.4477227032184601
-0.41860300302505493
-0.38294705748558044
-0.341441810131073
-0.2947813868522644
-0.24362996220588684
-0.18859192728996277
-0.1302030086517334
-0.06892853230237961
-0.005175180733203888
0.0606861338019371
0.12830114364624023
0.19730263948440552
0.21600553393363953
0.28344520926475525
0.34790366888046265
0.40814661979675293
0.46276748180389404
0.5102862119674683
0.5492741465568542
0.5785012245178223
0.5970731377601624
0.6045042872428894
0.6007508039474487
0.5861802101135254
0.5614936947822571
0.5276444554328918
0.4857441186904907
0.4369780421257019
0.38254109025001526
0.323581337928772
0.26114940643310547
0.1961582899093628
0.12935921549797058
0.061330460011959076
-0.0074869319796562195
-0.07673151046037674
-0.14600276947021484
-0.21473899483680725
-0.28209567070007324
-0.34688499569892883
-0.4075905382633209
-0.46248897910118103
-0.5098325610160828
-0.5480702519416809
-0.5760163068771362
-0.5929620862007141
-0.5986918807029724
-0.5934262871742249
-0.57772296667099
-0.5523605346679688
-0.5182303786277771
-0.4762630760669708
-0.42737677693367004
-0.37245652079582214
-0.31235745549201965
-0.24791190028190613
-0.17994403839111328
-0.10928437858819962
-0.036783359944820404
0.036661840975284576
0.11007761210203171
0.18238690495491028
0.2524029314517975
0.3188556730747223
0.3804503381252289
0.43594881892204285
0.4842492640018463
0.5244421362876892
0.5558271408081055
0.5778997540473938
0.5903213620185852
0.5928916335105896
0.5855425000190735
0.5683561563491821
0.5416034460067749
0.5057842135429382
0.46164897084236145
0.4101773202419281
0.3525161147117615
0.2898881733417511
0.22349980473518372
0.1544685959815979
0.08379312604665756
0.012362249195575714
-0.05901982635259628
-0.12958991527557373
-0.19858339428901672
-0.2651992738246918
-0.3285754919052124
-0.3877781927585602
-0.44180694222450256
-0.48961713910102844
-0.5301612615585327
-0.5624443292617798
-0.5855860114097595
-0.5988924503326416
-0.6019138693809509
-0.5944847464561462
-0.5767472982406616
-0.5491359233856201
-0.5123452544212341
-0.467269629240036
-0.41492828726768494
-0.3563923239707947
-0.2927207946777344
-0.22490176558494568
-0.15382814407348633
-0.08027748018503189
-0.004924498498439789
0.07164616137742996
0.14890903234481812
0.22637271881103516
0.2483997941017151
0.3291267454624176
0.4061032235622406
0.477615624666214
0.5418508648872375
0.597038209438324
0.6416153311729431
0.6743783354759216
0.6945852637290955
0.7019897699356079
0.6968091130256653
0.6796447038650513
0.6513721346855164
0.6130374073982239
0.5657626986503601
0.5106799602508545
0.44888705015182495
0.38142067193984985
0.3092426359653473
0.23323199152946472
0.1541905701160431
0.07286065071821213
-0.010029502213001251
-0.09370218962430954
-0.17724034190177917
-0.25950226187705994
-0.33907338976860046
-0.4142867624759674
-0.48332133889198303
-0.544363796710968
-0.5957995057106018
-0.6363717913627625
-0.665280282497406
-0.6821947693824768
-0.687203586101532
-0.6807088851928711
-0.6633155345916748
-0.6357254981994629
-0.5986579060554504
-0.5528077483177185
-0.4988369643688202
-0.4374007284641266
-0.3691931962966919
-0.29498860239982605
-0.21568551659584045
-0.13232991099357605
-0.04612002521753311
0.04159682244062424
0.12933826446533203
0.21551793813705444
0.2984951436519623
0.3766484558582306
0.44844910502433777
0.5125465989112854
0.5678209066390991
0.6134014129638672
0.6486532688140869
0.6731430888175964
0.6865957975387573
0.688865065574646
0.6799275279045105
0.6598958969116211
0.6290561556816101
0.5879087448120117
0.5372081398963928
0.4779570996761322
0.41137680411338806
0.33882877230644226
0.26171165704727173
0.18137004971504211
0.09903670102357864
0.015804477035999298
-0.06734868139028549
-0.14952197670936584
-0.22983631491661072
-0.3073893189430237
-0.3812156319618225
-0.4502590000629425
-0.5133839249610901
-0.5693835020065308
-0.6170346140861511
-0.6551519632339478
-0.6826678514480591
-0.6987112760543823
-0.7026832699775696
-0.6943127512931824
-0.6736916899681091
-0.6412750482559204
-0.5978538393974304
-0.5444939732551575
-0.4824642241001129
-0.41313979029655457
-0.3379230201244354
-0.2581652104854584
-0.17511609196662903
-0.0898868516087532
-0.003447793424129486
0.0833640918135643
0.16982287168502808
0.25528350472450256
0.2787252962589264
0.3713364601135254
0.4591749608516693
0.5401346683502197
0.6121288537979126
0.6732633709907532
0.7220017313957214
0.7572908997535706
0.7786063551902771
0.7859445214271545
0.7797371745109558
0.7607405781745911
0.729908287525177
0.6882850527763367
0.6369202733039856
0.5768175721168518
0.5089199542999268
0.43410903215408325
0.35323193669319153
0.26713037490844727
0.17668616771697998
0.08286284655332565
-0.013239361345767975
-0.11033505946397781
-0.20691347122192383
-0.3012256622314453
-0.391332745552063
-0.4752061665058136
-0.5508859753608704
-0.6166413426399231
-0.6711218953132629
-0.7134332656860352
-0.7431483268737793
-0.7602477073669434
-0.7650219202041626
-0.7579503655433655
-0.7395970225334167
-0.7105231285095215
-0.6712349057197571
-0.6221784353256226
-0.5637682676315308
-0.4964488446712494
-0.42078205943107605
-0.3375248312950134
-0.24769601225852966
-0.15259915590286255
-0.05381811410188675
0.04682905226945877
0.14736011624336243
0.2457253336906433
0.33990585803985596
0.42802196741104126
0.5084167718887329
0.5797088146209717
0.6408135294914246
0.6909213662147522
0.729464590549469
0.7560625672340393
0.7704861164093018
0.772632360458374
0.7625134587287903
0.7402728796005249
0.7062097191810608
0.6608183979988098
0.6048212647438049
0.5391910672187805
0.4651421010494232
0.38408005237579346
0.29752394556999207
0.20700526237487793
0.11398573964834213
0.019803591072559357
-0.07433594018220901
-0.16733208298683167
-0.2581343948841095
-0.34569627046585083
-0.4289223551750183
-0.5066410303115845
-0.5776012539863586
-0.6404908299446106
-0.6939798593521118
-0.7367873191833496
-0.7677502036094666
-0.7859117388725281
-0.7905896306037903
-0.7814422249794006
-0.7585064768791199
-0.7222135066986084
-0.6733691096305847
-0.6131158471107483
-0.5428603291511536
-0.4641862213611603
-0.3787645101547241
-0.28826215863227844
-0.19426536560058594
-0.09822849184274673
-0.0014425739645957947
0.09497060626745224
0.19004696607589722
0.28295832872390747
0.30645492672920227
0.40910571813583374
0.5057803392410278
0.5941154360771179
0.6719135642051697
0.7373214364051819
0.7889571785926819
0.8259857296943665
0.8481156826019287
0.8555402159690857
0.8488293290138245
0.8288047909736633
0.7964087128639221
0.7526070475578308
0.6983141303062439
0.6343640089035034
0.5615096688270569
0.48046383261680603
0.3919598162174225
0.2968229651451111
0.1960553228855133
0.0909014567732811
-0.017099298536777496
-0.12609988451004028
-0.23397737741470337
-0.33842602372169495
-0.43709418177604675
-0.5277531147003174
-0.6084662079811096
-0.677722156047821
-0.7344960570335388
-0.7782502174377441
-0.8088639974594116
-0.8265279531478882
-0.8316247463226318
-0.824617326259613
-0.8059523701667786
-0.776003897190094
-0.7350524663925171
-0.6833049058914185
-0.6209556460380554
-0.548291027545929
-0.46579793095588684
-0.37427863478660583
-0.2749241888523102
-0.16933754086494446
-0.05949912220239639
0.0523243173956871
0.1637137532234192
0.2722420394420624
0.37562295794487
0.4718247950077057
0.5591415762901306
0.6362190246582031
0.7020277976989746
0.7558227181434631
0.7970842719078064
0.8254750370979309
0.8407981991767883
0.8429825305938721
0.8320747017860413
0.8082483410835266
0.7718178033828735
0.7232633233070374
0.6632621884346008
0.59271639585495
0.5127671360969543
0.42478397488594055
0.330313503742218
0.23100486397743225
0.12851783633232117
0.024446673691272736
-0.0797276571393013
-0.182635098695755
-0.28298982977867126
-0.3795427978038788
-0.47103801369667053
-0.556178867816925
-0.6336243748664856
-0.7020055651664734
-0.7599635124206543
-0.8062064051628113
-0.8395781517028809
-0.8591248393058777
-0.8641585111618042
-0.8543124794960022
-0.8295812010765076
-0.7903406023979187
-0.7373518347740173
-0.671737015247345
-0.594933032989502
-0.5086237788200378
-0.414652943611145
-0.3149280846118927
-0.2113344967365265
-0.10565497726202011
0.0004875883460044861
0.10565764456987381
0.2086205780506134
0.3083319067955017
0.33078888058662415
0.44125908613204956
0.5444998145103455
0.6380488276481628
0.7197650074958801
0.7879601120948792
0.8414822220802307
0.8797261714935303
0.902593195438385
0.9103993773460388
0.903762698173523
0.8834808468818665
0.8504108786582947
0.805384635925293
0.7491466999053955
0.682341992855072
0.6055352091789246
0.519288182258606
0.4242490231990814
0.32127222418785095
0.21153098344802856
0.09660463780164719
-0.021493174135684967
-0.14035964012145996
-0.2573283612728119
-0.3696564733982086
-0.4747439920902252
-0.5703302025794983
-0.6546355485916138
-0.726428747177124
-0.7850103974342346
-0.8301301598548889
-0.8618762493133545
-0.880537748336792
-0.8864900469779968
-0.8800967335700989
-0.8616365790367126
-0.8312742114067078
-0.7890647649765015
-0.7350058555603027
-0.6691291928291321
-0.5916301012039185
-0.5030026435852051
-0.40416815876960754
-0.29654577374458313
-0.18205741047859192
-0.06305507570505142
0.057823218405246735
0.17782628536224365
0.2942807674407959
0.40475186705589294
0.5071447491645813
0.5997589826583862
0.6812770366668701
0.7507190108299255
0.8073858618736267
0.8507934212684631
0.8806328773498535
0.8967377543449402
0.8990718126296997
0.8877150416374207
0.8628705143928528
0.8248653411865234
0.7741665244102478
0.7113984227180481
0.6373755931854248
0.5531280636787415
0.4599202275276184
0.3592452108860016
0.25278201699256897
0.1423264443874359
0.029702983796596527
-0.0833074226975441
-0.1950150728225708
-0.3038289546966553
-0.4082399904727936
-0.506787121295929
-0.5980396270751953
-0.6805837154388428
-0.7530369758605957
-0.8140802979469299
-0.8624963760375977
-0.8972200751304626
-0.9173867106437683
-0.9223722815513611
-0.9118366837501526
-0.8857517242431641
-0.844434380531311
-0.788554847240448
-0.7191452383995056
-0.6375764012336731
-0.5455244183540344
-0.4448985755443573
-0.3377605378627777
-0.2262251079082489
-0.11236772686243057
0.001866556704044342
0.1147177442908287
0.22465315461158752
0.3303830921649933
0.35071900486946106
0.46653181314468384
0.5739762187004089
0.6706512570381165
0.7545967102050781
0.8243638873100281
0.8790424466133118
0.918220043182373
0.9419124722480774
0.9504711627960205
0.9444709420204163
0.9246078133583069
0.8915993571281433
0.8461064696311951
0.7886953949928284
0.7198308110237122
0.6399262547492981
0.5494366884231567
0.4489883780479431
0.33953166007995605
0.22247019410133362
0.09974502772092819
-0.026174046099185944
-0.15241307020187378
-0.27590352296829224
-0.393650621175766
-0.5029882192611694
-0.6017646193504333
-0.6884320378303528
-0.762035071849823
-0.8221310377120972
-0.8686595559120178
-0.9018000364303589
-0.9218406081199646
-0.9290683269500732
-0.9236891865730286
-0.9057849049568176
-0.8753052353858948
-0.8321071863174438
-0.7760277390480042
-0.7070077061653137
-0.6252391934394836
-0.5313169956207275
-0.4263538420200348
-0.3120355010032654
-0.1905876100063324
-0.06465930491685867
0.0628584548830986
0.18903514742851257
0.31109291315078735
0.42655131220817566
0.5333175659179688
0.629706859588623
0.7144221067428589
0.7865031361579895
0.845265805721283
0.8902462720870972
0.9211634397506714
0.9378849267959595
0.9404128789901733
0.9288691878318787
0.9034850001335144
0.8646026849746704
0.8126728534698486
0.748268723487854
0.6721119284629822
0.5851099491119385
0.48838695883750916
0.38332048058509827
0.27153950929641724
0.15489226579666138
0.0353735014796257
-0.0849602147936821
-0.2040790319442749
-0.32004043459892273
-0.4310165047645569
-0.5353049039840698
-0.6313174962997437
-0.7175779938697815
-0.7927306890487671
-0.855545699596405
-0.9049498438835144
-0.9400386214256287
-0.9601017832756042
-0.9646380543708801
-0.9533794522285461
-0.9263084530830383
-0.8836847543716431
-0.8260759115219116
-0.7543773055076599
-0.6698275208473206
-0.5739975571632385
-0.46876540780067444
-0.35624247789382935
-0.23868867754936218
-0.11840527504682541
0.002372659742832184
0.1215740367770195
0.23735865950584412
0.3481701910495758
0.3651577830314636
0.48373255133628845
0.5930784344673157
0.6909858584403992
0.7757450342178345
0.8461598753929138
0.9015193581581116
0.9415267109870911
0.9662268161773682
0.9759106040000916
0.9710330367088318
0.952127993106842
0.9197313785552979
0.8743223547935486
0.8162989020347595
0.7459858059883118
0.6637059450149536
0.5698902010917664
0.46523329615592957
0.3508587181568146
0.2284468710422516
0.10029309242963791
-0.030768968164920807
-0.16155022382736206
-0.2887876033782959
-0.4094431698322296
-0.5209549069404602
-0.6213684678077698
-0.7093751430511475
-0.7842352986335754
-0.845658004283905
-0.893653392791748
-0.9283861517906189
-0.9500556588172913
-0.9588006138801575
-0.9546390175819397
-0.9374508261680603
-0.906991720199585
-0.8629633188247681
-0.8051129579544067
-0.7333804965019226
-0.6480526328086853
-0.5499096512794495
-0.44030889868736267
-0.321206659078598
-0.19506984949111938
-0.06472260504961014
0.06684710830450058
0.19668638706207275
0.3220425248146057
0.440473347902298
0.5499109029769897
0.6486735343933105
0.7354462146759033
0.8092459440231323
0.8693736791610718
0.9153718948364258
0.9469841122627258
0.9641202092170715
0.9668301939964294
0.9552816152572632
0.929742157459259
0.890564501285553
0.8381868600845337
0.7731342911720276
0.696047842502594
0.6077137589454651
0.5091149210929871
0.40148472785949707
0.28634390234947205
0.16551128029823303
0.041066043078899384
-0.08472760766744614
-0.20953083038330078
-0.33104202151298523
-0.4470895826816559
-0.555690348148346
-0.6550790071487427
-0.7437167167663574
-0.8202900886535645
-0.8836995959281921
-0.933052122592926
-0.9676538109779358
-0.986991822719574
-0.9907311797142029
-0.9787111878395081
-0.9509548544883728
-0.9076888561248779
-0.849380373954773
-0.7767745852470398
-0.6909342408180237
-0.5932700037956238
-0.48553523421287537
-0.3697930872440338
-0.2483503520488739
-0.12365040928125381
0.0018513724207878113
0.1258082091808319
0.24609053134918213
0.36086589097976685
0.3730931580066681
0.4919065535068512
0.6010375618934631
0.6985470056533813
0.7829894423484802
0.8533778786659241
0.9091234803199768
0.9499585628509521
0.9758588671684265
0.9869801998138428
0.9835910797119141
0.9660183191299438
0.934593915939331
0.8896220326423645
0.8313633799552917
0.7600712180137634
0.6760627627372742
0.5798529982566833
0.47231224179267883
0.3548108637332916
0.2293265163898468
0.098434679210186
-0.03481344133615494
-0.1671360433101654
-0.2953105866909027
-0.4164579212665558
-0.5282372236251831
-0.6289304494857788
-0.7174175381660461
-0.793076753616333
-0.8556500673294067
-0.9051012396812439
-0.9414864182472229
-0.9648476243019104
-0.9751389622688293
-0.972184956073761
-0.9556805491447449
-0.9252356886863708
-0.8804637789726257
-0.8211144804954529
-0.7472233176231384
-0.6592652797698975
-0.558268666267395
-0.4458564817905426
-0.3241986036300659
-0.19589197635650635
-0.06378529220819473
0.06920220702886581
0.20023781061172485
0.32668593525886536
0.4461909532546997
0.556710422039032
0.6565384864807129
0.7443038821220398
0.8189620971679688
0.8797728419303894
0.9262659549713135
0.9582057595252991
0.9755460023880005
0.978393018245697
0.9669629335403442
0.941561758518219
0.9025593400001526
0.8503828644752502
0.7855237126350403
0.7085516452789307
0.6201557517051697
0.5211948752403259
0.41276124119758606
0.2962449789047241
0.17337244749069214
0.046222709119319916
-0.08283460885286331
-0.21123793721199036
-0.33637866377830505
-0.4557552635669708
-0.5670952200889587
-0.6684378981590271
-0.7581680417060852
-0.8350132703781128
-0.8980085253715515
-0.946462094783783
-0.9799044728279114
-0.9980428814888
-1.0007292032241821
-0.9879377484321594
-0.9597577452659607
-0.9164115190505981
-0.8582878112792969
-0.7859949469566345
-0.7004110217094421
-0.602748692035675
-0.49457815289497375
-0.37783220410346985
-0.2547619640827179
-0.12785062193870544
0.00031497329473495483
0.12718260288238525
0.2503730356693268
0.3677956759929657
0.3737618625164032
0.49048087000846863
0.5975375771522522
0.6932920813560486
0.7765253186225891
0.8463850021362305
0.902315616607666
0.9439834356307983