# vtk DataFile Version 3.0
2D PINN Solution
ASCII
DATASET STRUCTURED_GRID
DIMENSIONS 100 100 1
POINTS 10000 float
-1.0 -1.0 0.0
-0.9797979797979798 -1.0 0.0
-0.9595959595959596 -1.0 0.0
-0.9393939393939394 -1.0 0.0
-0.9191919191919192 -1.0 0.0
-0.898989898989899 -1.0 0.0
-0.8787878787878788 -1.0 0.0
-0.8585858585858586 -1.0 0.0
-0.8383838383838383 -1.0 0.0
-0.8181818181818181 -1.0 0.0
-0.797979797979798 -1.0 0.0
-0.7777777777777778 -1.0 0.0
-0.7575757575757576 -1.0 0.0
-0.7373737373737373 -1.0 0.0
-0.7171717171717171 -1.0 0.0
-0.696969696969697 -1.0 0.0
-0.6767676767676767 -1.0 0.0
-0.6565656565656566 -1.0 0.0
-0.6363636363636364 -1.0 0.0
-0.6161616161616161 -1.0 0.0
-0.5959595959595959 -1.0 0.0
-0.5757575757575757 -1.0 0.0
-0.5555555555555556 -1.0 0.0
-0.5353535353535352 -1.0 0.0
-0.5151515151515151 -1.0 0.0
-0.4949494949494949 -1.0 0.0
-0.4747474747474747 -1.0 0.0
-0.4545454545454545 -1.0 0.0
-0.43434343434343425 -1.0 0.0
-0.41414141414141414 -1.0 0.0
-0.3939393939393939 -1.0 0.0
-0.3737373737373737 -1.0 0.0
-0.3535353535353535 -1.0 0.0
-0.33333333333333326 -1.0 0.0
-0.31313131313131304 -1.0 0.0
-0.2929292929292928 -1.0 0.0
-0.2727272727272727 -1.0 0.0
-0.2525252525252525 -1.0 0.0
-0.23232323232323226 -1.0 0.0
-0.21212121212121204 -1.0 0.0
-0.19191919191919182 -1.0 0.0
-0.1717171717171716 -1.0 0.0
-0.1515151515151515 -1.0 0.0
-0.13131313131313127 -1.0 0.0
-0.11111111111111105 -1.0 0.0
-0.09090909090909083 -1.0 0.0
-0.07070707070707061 -1.0 0.0
-0.050505050505050386 -1.0 0.0
-0.030303030303030276 -1.0 0.0
-0.010101010101010055 -1.0 0.0
0.010101010101010166 -1.0 0.0
0.030303030303030498 -1.0 0.0
0.05050505050505061 -1.0 0.0
0.07070707070707072 -1.0 0.0
0.09090909090909105 -1.0 0.0
0.11111111111111116 -1.0 0.0
0.1313131313131315 -1.0 0.0
0.1515151515151516 -1.0 0.0
0.1717171717171717 -1.0 0.0
0.19191919191919204 -1.0 0.0
0.21212121212121215 -1.0 0.0
0.2323232323232325 -1.0 0.0
0.2525252525252526 -1.0 0.0
0.27272727272727293 -1.0 0.0
0.29292929292929304 -1.0 0.0
0.31313131313131315 -1.0 0.0
0.3333333333333335 -1.0 0.0
0.3535353535353536 -1.0 0.0
0.3737373737373739 -1.0 0.0
0.39393939393939403 -1.0 0.0
0.41414141414141437 -1.0 0.0
0.4343434343434345 -1.0 0.0
0.4545454545454546 -1.0 0.0
0.4747474747474749 -1.0 0.0
0.49494949494949503 -1.0 0.0
0.5151515151515154 -1.0 0.0
0.5353535353535355 -1.0 0.0
0.5555555555555556 -1.0 0.0
0.5757575757575759 -1.0 0.0
0.595959595959596 -1.0 0.0
0.6161616161616164 -1.0 0.0
0.6363636363636365 -1.0 0.0
0.6565656565656568 -1.0 0.0
0.6767676767676769 -1.0 0.0
0.696969696969697 -1.0 0.0
0.7171717171717173 -1.0 0.0
0.7373737373737375 -1.0 0.0
0.7575757575757578 -1.0 0.0
0.7777777777777779 -1.0 0.0
0.7979797979797982 -1.0 0.0
0.8181818181818183 -1.0 0.0
0.8383838383838385 -1.0 0.0
0.8585858585858588 -1.0 0.0
0.8787878787878789 -1.0 0.0
0.8989898989898992 -1.0 0.0
0.9191919191919193 -1.0 0.0
0.9393939393939394 -1.0 0.0
0.9595959595959598 -1.0 0.0
0.9797979797979799 -1.0 0.0
1.0 -1.0 0.0
-1.0 -0.9797979797979798 0.0
-0.9797979797979798 -0.9797979797979798 0.0
-0.9595959595959596 -0.9797979797979798 0.0
-0.9393939393939394 -0.9797979797979798 0.0
-0.9191919191919192 -0.9797979797979798 0.0
-0.898989898989899 -0.9797979797979798 0.0
-0.8787878787878788 -0.9797979797979798 0.0
-0.8585858585858586 -0.9797979797979798 0.0
-0.8383838383838383 -0.9797979797979798 0.0
-0.8181818181818181 -0.9797979797979798 0.0
-0.797979797979798 -0.9797979797979798 0.0
-0.7777777777777778 -0.9797979797979798 0.0
-0.7575757575757576 -0.9797979797979798 0.0
-0.7373737373737373 -0.9797979797979798 0.0
-0.7171717171717171 -0.9797979797979798 0.0
-0.696969696969697 -0.9797979797979798 0.0
-0.6767676767676767 -0.9797979797979798 0.0
-0.6565656565656566 -0.9797979797979798 0.0
-0.6363636363636364 -0.9797979797979798 0.0
-0.6161616161616161 -0.9797979797979798 0.0
-0.5959595959595959 -0.9797979797979798 0.0
-0.5757575757575757 -0.9797979797979798 0.0
-0.5555555555555556 -0.9797979797979798 0.0
-0.5353535353535352 -0.9797979797979798 0.0
-0.5151515151515151 -0.9797979797979798 0.0
-0.4949494949494949 -0.9797979797979798 0.0
-0.4747474747474747 -0.9797979797979798 0.0
-0.4545454545454545 -0.9797979797979798 0.0
-0.43434343434343425 -0.9797979797979798 0.0
-0.41414141414141414 -0.9797979797979798 0.0
-0.3939393939393939 -0.9797979797979798 0.0
-0.3737373737373737 -0.9797979797979798 0.0
-0.3535353535353535 -0.9797979797979798 0.0
-0.33333333333333326 -0.9797979797979798 0.0
-0.31313131313131304 -0.9797979797979798 0.0
-0.2929292929292928 -0.9797979797979798 0.0
-0.2727272727272727 -0.9797979797979798 0.0
-0.2525252525252525 -0.9797979797979798 0.0
-0.23232323232323226 -0.9797979797979798 0.0
-0.21212121212121204 -0.9797979797979798 0.0
-0.19191919191919182 -0.9797979797979798 0.0
-0.1717171717171716 -0.9797979797979798 0.0
-0.1515151515151515 -0.9797979797979798 0.0
-0.13131313131313127 -0.9797979797979798 0.0
-0.11111111111111105 -0.9797979797979798 0.0
-0.09090909090909083 -0.9797979797979798 0.0
-0.07070707070707061 -0.9797979797979798 0.0
-0.050505050505050386 -0.9797979797979798 0.0
-0.030303030303030276 -0.9797979797979798 0.0
-0.010101010101010055 -0.9797979797979798 0.0
0.010101010101010166 -0.9797979797979798 0.0
0.030303030303030498 -0.9797979797979798 0.0
0.05050505050505061 -0.9797979797979798 0.0
0.07070707070707072 -0.9797979797979798 0.0
0.09090909090909105 -0.9797979797979798 0.0
0.11111111111111116 -0.9797979797979798 0.0
0.1313131313131315 -0.9797979797979798 0.0
0.1515151515151516 -0.9797979797979798 0.0
0.1717171717171717 -0.9797979797979798 0.0
0.19191919191919204 -0.9797979797979798 0.0
0.21212121212121215 -0.9797979797979798 0.0
0.2323232323232325 -0.9797979797979798 0.0
0.2525252525252526 -0.9797979797979798 0.0
0.27272727272727293 -0.9797979797979798 0.0
0.29292929292929304 -0.9797979797979798 0.0
0.31313131313131315 -0.9797979797979798 0.0
0.3333333333333335 -0.9797979797979798 0.0
0.3535353535353536 -0.9797979797979798 0.0
0.3737373737373739 -0.9797979797979798 0.0
0.39393939393939403 -0.9797979797979798 0.0
0.41414141414141437 -0.9797979797979798 0.0
0.4343434343434345 -0.9797979797979798 0.0
0.4545454545454546 -0.9797979797979798 0.0
0.4747474747474749 -0.9797979797979798 0.0
0.49494949494949503 -0.9797979797979798 0.0
0.5151515151515154 -0.9797979797979798 0.0
0.5353535353535355 -0.9797979797979798 0.0
0.5555555555555556 -0.9797979797979798 0.0
0.5757575757575759 -0.9797979797979798 0.0
0.595959595959596 -0.9797979797979798 0.0
0.6161616161616164 -0.9797979797979798 0.0
0.6363636363636365 -0.9797979797979798 0.0
0.6565656565656568 -0.9797979797979798 0.0
0.6767676767676769 -0.9797979797979798 0.0
0.696969696969697 -0.9797979797979798 0.0
0.7171717171717173 -0.9797979797979798 0.0
0.7373737373737375 -0.9797979797979798 0.0
0.7575757575757578 -0.9797979797979798 0.0
0.7777777777777779 -0.9797979797979798 0.0
0.7979797979797982 -0.9797979797979798 0.0
0.8181818181818183 -0.9797979797979798 0.0
0.8383838383838385 -0.9797979797979798 0.0
0.8585858585858588 -0.9797979797979798 0.0
0.8787878787878789 -0.9797979797979798 0.0
0.8989898989898992 -0.9797979797979798 0.0
0.9191919191919193 -0.9797979797979798 0.0
0.9393939393939394 -0.9797979797979798 0.0
0.9595959595959598 -0.9797979797979798 0.0
0.9797979797979799 -0.9797979797979798 0.0
1.0 -0.9797979797979798 0.0
-1.0 -0.9595959595959596 0.0
-0.9797979797979798 -0.9595959595959596 0.0
-0.9595959595959596 -0.9595959595959596 0.0
-0.9393939393939394 -0.9595959595959596 0.0
-0.9191919191919192 -0.9595959595959596 0.0
-0.898989898989899 -0.9595959595959596 0.0
-0.8787878787878788 -0.9595959595959596 0.0
-0.8585858585858586 -0.9595959595959596 0.0
-0.8383838383838383 -0.9595959595959596 0.0
-0.8181818181818181 -0.9595959595959596 0.0
-0.797979797979798 -0.9595959595959596 0.0
-0.7777777777777778 -0.9595959595959596 0.0
-0.7575757575757576 -0.9595959595959596 0.0
-0.7373737373737373 -0.9595959595959596 0.0
-0.7171717171717171 -0.9595959595959596 0.0
-0.696969696969697 -0.9595959595959596 0.0
-0.6767676767676767 -0.9595959595959596 0.0
-0.6565656565656566 -0.9595959595959596 0.0
-0.6363636363636364 -0.9595959595959596 0.0
-0.6161616161616161 -0.9595959595959596 0.0
-0.5959595959595959 -0.9595959595959596 0.0
-0.5757575757575757 -0.9595959595959596 0.0
-0.5555555555555556 -0.9595959595959596 0.0
-0.5353535353535352 -0.9595959595959596 0.0
-0.5151515151515151 -0.9595959595959596 0.0
-0.4949494949494949 -0.9595959595959596 0.0
-0.4747474747474747 -0.9595959595959596 0.0
-0.4545454545454545 -0.9595959595959596 0.0
-0.43434343434343425 -0.9595959595959596 0.0
-0.41414141414141414 -0.9595959595959596 0.0
-0.3939393939393939 -0.9595959595959596 0.0
-0.3737373737373737 -0.9595959595959596 0.0
-0.3535353535353535 -0.9595959595959596 0.0
-0.33333333333333326 -0.9595959595959596 0.0
-0.31313131313131304 -0.9595959595959596 0.0
-0.2929292929292928 -0.9595959595959596 0.0
-0.2727272727272727 -0.9595959595959596 0.0
-0.2525252525252525 -0.9595959595959596 0.0
-0.23232323232323226 -0.9595959595959596 0.0
-0.21212121212121204 -0.9595959595959596 0.0
-0.19191919191919182 -0.9595959595959596 0.0
-0.1717171717171716 -0.9595959595959596 0.0
-0.1515151515151515 -0.9595959595959596 0.0
-0.13131313131313127 -0.9595959595959596 0.0
-0.11111111111111105 -0.9595959595959596 0.0
-0.09090909090909083 -0.9595959595959596 0.0
-0.07070707070707061 -0.9595959595959596 0.0
-0.050505050505050386 -0.9595959595959596 0.0
-0.030303030303030276 -0.9595959595959596 0.0
-0.010101010101010055 -0.9595959595959596 0.0
0.010101010101010166 -0.9595959595959596 0.0
0.030303030303030498 -0.9595959595959596 0.0
0.05050505050505061 -0.9595959595959596 0.0
0.07070707070707072 -0.9595959595959596 0.0
0.09090909090909105 -0.9595959595959596 0.0
0.11111111111111116 -0.9595959595959596 0.0
0.1313131313131315 -0.9595959595959596 0.0
0.1515151515151516 -0.9595959595959596 0.0
0.1717171717171717 -0.9595959595959596 0.0
0.19191919191919204 -0.9595959595959596 0.0
0.21212121212121215 -0.9595959595959596 0.0
[...]
POINT_DATA 10000
SCALARS u float 1
LOOKUP_TABLE default
0.060862623155117035
0.10394879430532455
0.14308759570121765
0.17793750762939453
0.20821905136108398
0.23371031880378723
0.2542485296726227
0.26972872018814087
0.2801004946231842
0.28537479043006897
0.2856200337409973
0.2809678316116333
0.27161502838134766
0.2578223943710327
0.2399178445339203
0.21829333901405334
0.1934058964252472
0.16576746106147766
0.1359388530254364
0.1045142337679863
0.07210453599691391
0.03931393474340439
0.006721727550029755
-0.02514553815126419
-0.05582837015390396
-0.08494491130113602
-0.11219019442796707
-0.13732823729515076
-0.16017457842826843
-0.18057551980018616
-0.1983862817287445
-0.2134564220905304
-0.2256232500076294
-0.23471587896347046
-0.24056681990623474
-0.24303019046783447
-0.2419992983341217
-0.23742493987083435
-0.2293182909488678
-0.2177582085132599
-0.20288214087486267
-0.18487757444381714
-0.16397318243980408
-0.1404334008693695
-0.1145501509308815
-0.08664286881685257
-0.057060606777668
-0.026186503469944
0.005559302866458893
0.03771447390317917
0.0697726383805275
0.10118357092142105
0.13135692477226257
0.15967485308647156
0.18550488352775574
0.2082262635231018
0.22725313901901245
0.242075115442276
0.25228801369667053
0.2576315104961395
0.25801053643226624
0.2535078823566437
0.244378000497818
0.2310200333595276
0.21393293142318726
0.19366759061813354
0.17077603936195374
0.145768404006958
0.11909457296133041
0.09113489836454391
0.062204740941524506
0.03258248418569565
0.00252353772521019
-0.02770649641752243
-0.0578099861741066
-0.08744188398122787
-0.11619593948125839
-0.14360767602920532
-0.1691669523715973
-0.1923336684703827
-0.2125754952430725
-0.22939148545265198
-0.24235916137695312
-0.2511574625968933
-0.2555902302265167
-0.25559306144714355
-0.2512340843677521
-0.242691308259964
-0.23023077845573425
-0.21417108178138733
-0.1948533058166504
-0.17260736227035522
-0.14772644639015198
-0.12045262008905411
-0.09096290916204453
-0.059367835521698
-0.0257229283452034
0.009963177144527435
0.04770379513502121
0.08751451224088669
0.11211272329092026
0.15940344333648682
0.2026580572128296
0.2414555549621582
0.27543947100639343
0.3043157160282135
0.32785117626190186
0.3458711802959442
0.3582595884799957
0.3649609386920929
0.36597809195518494
0.36137887835502625
0.35129228234291077
0.33591803908348083
0.3155248165130615
0.29044732451438904
0.26109349727630615
0.22793149948120117
0.19149050116539001
0.1523434817790985
0.11109820753335953
0.06837601214647293
0.024797596037387848
-0.019035719335079193
-0.06254831701517105
-0.10519213229417801
-0.14644023776054382
-0.1857720911502838
-0.22265619039535522
-0.25653520226478577
-0.286825567483902
-0.31292566657066345
-0.3342478275299072
-0.35025104880332947
-0.36049649119377136
-0.36468222737312317
-0.3626766800880432
-0.35453343391418457
-0.3404817283153534
-0.32089969515800476
-0.296279639005661
-0.26718249917030334
-0.2342005968093872
-0.19792655110359192
-0.15893709659576416
-0.11778344959020615
-0.07499965280294418
-0.031114540994167328
0.013340406119823456
0.057807259261608124
0.10169119387865067
0.14435645937919617
0.1851203739643097
0.22326421737670898
0.2580498456954956
0.2887406051158905
0.31463900208473206
0.3351207673549652
0.34967276453971863
0.35793325304985046
0.3597159683704376
0.3550306260585785
0.3440834581851959
0.327260285615921
0.3050837218761444
0.27817294001579285
0.24718007445335388
0.21274447441101074
0.17545807361602783
0.1358495056629181
0.09439102560281754
0.05151837319135666
0.007660724222660065
-0.03672555834054947
-0.08113162964582443
-0.1249714270234108
-0.1675763726234436
-0.20819979906082153
-0.2460383176803589
-0.28026774525642395
-0.3100796341896057
-0.33474108576774597
-0.3536345958709717
-0.3663059175014496
-0.372487336397171
-0.37211260199546814
-0.36531007289886475
-0.3523780107498169
-0.33375799655914307
-0.3099772036075592
-0.2816157341003418
-0.24925744533538818
-0.2134503424167633
-0.1746813952922821
-0.1333596408367157
-0.08980562537908554
-0.044264182448387146
0.00309009850025177
0.05211859196424484
0.10269924253225327
0.160190612077713
0.21193265914916992
0.2596282362937927
0.30276933312416077
0.3409164845943451
0.3736931383609772
0.4007890522480011
0.42195239663124084
0.4369905889034271
0.44577065110206604
0.44821685552597046
0.44431403279304504
0.4341105818748474
0.41771963238716125
0.3953264057636261
0.3671855330467224
0.33362773060798645
0.29505616426467896
0.2519433796405792
0.20482972264289856
0.1543121039867401
0.10103552788496017
0.04568403214216232
-0.011026836931705475
-0.06834838539361954
-0.1254950761795044
-0.181633859872818
-0.23587271571159363
-0.28725460171699524
-0.3347669541835785
-0.37736693024635315
-0.414026141166687
-0.4437955915927887
-0.46586480736732483
-0.4796277582645416
-0.48473063111305237
-0.481097012758255
-0.46892407536506653
-0.4486619532108307
-0.4209664463996887
-0.3866364657878876
-0.34655627608299255
-0.30163317918777466
-0.25275155901908875
-0.20074626803398132
-0.14639133214950562
-0.09040624648332596
-0.033469103276729584
0.023753799498081207
0.08059007674455643
0.13633447885513306
0.19024240970611572
0.24152052402496338
0.28934168815612793
0.33285900950431824
0.3712374269962311
0.40368911623954773
0.4295078217983246
0.44811245799064636
0.45907339453697205
0.4621413052082062
0.4572654664516449
0.4445955455303192
0.42447638511657715
0.3974184989929199
0.36405959725379944
0.3251142203807831
0.28132450580596924
0.23341625928878784
0.18207970261573792
0.12796607613563538
0.07170379906892776
0.013931609690189362
-0.04467061907052994
-0.10335051268339157
-0.16126388311386108
-0.2174730896949768
-0.2709607481956482
-0.3206580579280853
-0.36549118161201477
-0.4044313132762909
-0.43655744194984436
-0.4611073434352875
-0.4775243103504181
-0.48548296093940735
-0.48490825295448303
-0.4759654104709625
-0.45903316140174866
-0.4346742331981659
-0.40358075499534607
-0.3665253818035126
-0.32430922985076904
-0.27771618962287903
-0.22747746109962463
-0.17424076795578003
-0.11856234818696976
-0.060906119644641876
-0.0016570687294006348
0.05885922163724899
0.12034600228071213
0.2039850950241089
0.2603110074996948
0.3126657009124756
0.360447496175766
0.4031272530555725
0.4402427077293396
0.4713955521583557
0.4962512254714966
0.5145314335823059
0.5260119438171387
0.5305273532867432
0.5279622673988342
0.5182652473449707
0.5014398694038391
0.477560430765152
0.44677239656448364
0.40929728746414185
0.3654464781284332
0.31561169028282166
0.26028624176979065
0.20005729794502258
0.13561290502548218
0.06774308532476425
-0.0026526525616645813
-0.07456205040216446
-0.14685514569282532
-0.21828073263168335
-0.28747931122779846
-0.353004515171051
-0.41337811946868896
-0.46714702248573303
-0.512970507144928
-0.5496893525123596
-0.5763973593711853
-0.5924908518791199
-0.597687304019928
-0.5920331478118896
-0.5758759379386902
-0.5498349666595459
-0.5147435069084167
-0.4715953767299652
-0.421479195356369
-0.3655186891555786
-0.304818719625473
-0.24043497443199158
-0.17334920167922974
-0.10447786003351212
-0.03468265384435654
0.03520164638757706
0.10433962196111679
0.17187398672103882
0.23691406846046448
0.29852840304374695
0.3557645082473755
0.4076736271381378
0.4533354938030243
0.4919000566005707
0.5226233005523682
0.5448923707008362
0.558252215385437
0.562425434589386
0.5573160648345947
0.543023407459259
0.5198312401771545
0.488197922706604
0.4487350881099701
0.40217098593711853
0.3493124842643738
0.2910034954547882
0.2280978560447693
0.16145238280296326
0.09193015843629837
0.02042301744222641
-0.05211808532476425
-0.12466544657945633
-0.19610288739204407
-0.26522743701934814
-0.33077648282051086
-0.3914647400379181
-0.4460306465625763
-0.49329736828804016
-0.5322255492210388
-0.5619641542434692
-0.5818935036659241
-0.5916507840156555
-0.5911398530006409
-0.5805292725563049
-0.5602268576622009
-0.5308506488800049
-0.49318453669548035
-0.4481298625469208
-0.39665451645851135
-0.33974283933639526
-0.2783507704734802
-0.2133760154247284
-0.14563101530075073
-0.07583694905042648
-0.004630275070667267
0.06742700189352036
0.1398143470287323
0.24249550700187683
0.30340737104415894
0.36051061749458313
0.4131104648113251
0.4605807960033417
0.5023673176765442
0.5379801988601685
0.5669896006584167
0.5890236496925354
0.6037610173225403
0.6109282374382019
0.610299289226532
0.6016965508460999
0.5849960446357727
0.5601308941841125
0.5271034836769104
0.48599985241889954
0.43700024485588074
0.38039952516555786
0.31663018465042114
0.24628224968910217
0.17012366652488708
0.08912343531847
0.004462055861949921
-0.08246206492185593
-0.17004001140594482
-0.2564907371997833
-0.33990737795829773
-0.4183466136455536
-0.48992350697517395
-0.552911639213562
-0.6058359742164612
-0.6475405693054199
-0.6772209405899048
-0.6944328546524048
-0.6990668177604675
-0.6913247108459473
-0.671675980091095
-0.6408180594444275
-0.5996425151824951
-0.5491898655891418
-0.4906093180179596
-0.4251119792461395
-0.35393238067626953
-0.27828529477119446
-0.1993447244167328
-0.11823920160531998
-0.03605011850595474
0.04616355150938034
0.12734627723693848
0.20643350481987
0.2823387682437897
0.35396596789360046
0.42022624611854553
0.4800678789615631
0.5325096249580383
0.5766744613647461
0.611812949180603
0.6373236775398254
0.6527630686759949
0.6578482389450073
0.6524630188941956
0.6366552114486694
0.6106406450271606
0.5748012065887451
0.5296831130981445
0.4759840667247772
0.41453564167022705
0.3462734520435333
0.272219181060791
0.19345349073410034
0.11111602932214737
0.026401102542877197
-0.05942893028259277
-0.14504116773605347
-0.22903966903686523
-0.3099774122238159
-0.38639310002326965
-0.456846684217453
-0.5199702382087708
-0.5745134949684143
-0.6193917989730835
-0.6537256836891174
-0.6768718361854553
-0.6884395480155945
-0.6883056163787842
-0.6766015887260437
-0.6537099480628967
-0.6202360987663269
-0.5769779086112976
-0.5248939990997314
-0.46504881978034973
-0.39858147501945496
-0.3266496956348419
-0.25038984417915344
-0.17089173197746277
-0.08916924148797989
-0.006156422197818756
0.07729334384202957
0.16039294004440308
0.2748810946941376
0.3402395248413086
0.40204349160194397
0.4595000147819519
0.5118877291679382
0.5585494041442871
0.5988982915878296
0.6324071884155273
0.6585964560508728
0.6770389676094055
0.6873425245285034
0.6891539692878723
0.6821539998054504
0.6660636067390442
0.6406497359275818
0.605743944644928
0.5612599849700928
0.5072247385978699
0.44381749629974365
0.37141185998916626
0.2906271815299988
0.2023772895336151
0.10790432244539261
0.00879918783903122
-0.09301047772169113
-0.19531846046447754
-0.29572370648384094
-0.3917703926563263
-0.4810841977596283
-0.5615217685699463
-0.6312831044197083
-0.6889781951904297
-0.7336515784263611
-0.7647579908370972
-0.7821090221405029
-0.7858130931854248
-0.7762168049812317
-0.7538553476333618
-0.7194237112998962
-0.6737557053565979
-0.617811918258667
-0.5526688694953918
-0.4795023500919342
-0.39956799149513245
-0.3141702115535736
-0.22464194893836975
-0.1323224902153015
-0.03854743391275406
0.05534797161817551
0.14803281426429749
0.23817458748817444
0.3244536519050598
0.4055776298046112
0.48031342029571533
0.5475184321403503
0.6061718463897705
0.6553961038589478
0.6944690942764282
0.7228279709815979
0.740062415599823
0.745904266834259
0.7402235865592957
0.7230252623558044
0.6944521069526672
0.6547982096672058
0.6045253276824951
0.5442726016044617
0.4748677909374237
0.39732280373573303
0.31281423568725586
0.22266855835914612
0.12832605838775635
0.03132475167512894
-0.06673320382833481
-0.1641988456249237
-0.2594066560268402
-0.35070690512657166
-0.43649378418922424
-0.515249490737915
-0.585572361946106
-0.646214485168457
-0.696107029914856
-0.7343883514404297
-0.7604185342788696
-0.7737914323806763
-0.7743387222290039
-0.7621320486068726
-0.7374786138534546
-0.700911283493042
-0.6531743407249451
-0.5952041745185852
-0.5281039476394653
-0.4531044065952301
-0.37152308225631714
-0.28472790122032166
-0.19408771395683289
-0.10093528777360916
-0.006542421877384186
0.08789908140897751
0.18128743767738342
0.30049237608909607
0.3700139820575714
0.4363236725330353
0.49853166937828064
0.5558133125305176
0.6074100136756897
0.6526308655738831
0.6908371448516846
0.7214418053627014
0.7438954710960388
0.7576809525489807
0.7622987627983093
0.7572740316390991
0.7421531081199646
0.7165136337280273
0.6799889206886292
0.6322993636131287
0.5733030438423157
0.503058671951294
0.42190682888031006
0.33055099844932556
0.23013806343078613
0.12230730801820755
0.009198062121868134
-0.10661567002534866
-0.22224438190460205
-0.33467569947242737
-0.4409851133823395
-0.5385355353355408
-0.6251381039619446
-0.6991350054740906
-0.759409487247467
-0.8053385615348816
-0.8367065191268921
-0.8535979986190796
-0.856321394443512
-0.8453202843666077
-0.8211420178413391
-0.7844096422195435
-0.7358289361000061
-0.6761983036994934
-0.6064320206642151
-0.5275750756263733
-0.4408119022846222
-0.3474612832069397
-0.2489614188671112
-0.1468416154384613
-0.04270119220018387
0.06182194501161575
0.16507622599601746
0.26542434096336365
0.3612804114818573
0.4511423707008362
0.5336332321166992
0.6075289845466614
0.6717862486839294
0.725544273853302
0.7681255340576172
0.7990143895149231
0.8178368806838989
0.8243444561958313
0.8183926939964294
0.7999430894851685
0.7690702080726624
0.7259845733642578
0.6710630059242249
0.6048882603645325
0.5282799601554871
0.44231733679771423
0.3483365476131439
0.24790796637535095
0.14278680086135864
0.034856654703617096
-0.07393623143434525
-0.18164512515068054
-0.2863730788230896
-0.38631659746170044
-0.47979608178138733
-0.5652763247489929
-0.6413864493370056
-0.7069317698478699
-0.76090008020401
-0.80247563123703
-0.8310362100601196
-0.8461626172065735
-0.8476377129554749
-0.8354535698890686
-0.8098098039627075
-0.7711248397827148
-0.7200387716293335
-0.6574091911315918
-0.5843082666397095
-0.502006471157074
-0.4119362533092499
-0.3156605064868927
-0.21481940150260925
-0.1110757514834404
-0.0060645416378974915
0.09865131229162216
0.2016158103942871
0.3188985586166382
0.3921571373939514
0.4626295864582062
0.529329776763916
0.5913302898406982
0.647765576839447
0.6978318095207214
0.7407742142677307
0.7758861184120178
0.8024877905845642
0.8199209570884705
0.8275342583656311
0.824677586555481
0.8107065558433533
0.7849963307380676
0.7469669580459595
0.6961398124694824
0.6322081685066223
0.5551376342773438
0.4652876853942871
0.36353158950805664
0.2513655126094818
0.130953848361969
0.005089722573757172
-0.1229378953576088
-0.24958288669586182
-0.371333509683609
-0.4849841296672821
-0.587867021560669
-0.6779666543006897
-0.7539388537406921
-0.8150444626808167
-0.8610264658927917
-0.89197838306427
-0.9082121253013611
-0.9101629853248596
-0.8983200192451477
-0.8731885552406311
-0.8352862000465393
-0.7851598262786865
-0.7234161496162415
-0.6507733464241028
-0.5680970549583435
-0.47644534707069397
-0.3770858943462372
-0.27150270342826843
-0.16137149930000305
-0.04852677136659622
0.0650966688990593
0.17752274870872498
0.2868049442768097
0.391083687543869
0.4886504113674164
0.5779877305030823
0.6578027606010437
0.7270321249961853
0.7848357558250427
0.8305706977844238
0.8637587428092957
0.8840504288673401
0.8911978602409363
0.8850361108779907
0.8654834628105164
0.8325520157814026
0.7863852381706238
0.7273038625717163
0.6558593511581421
0.5728921890258789
0.4795668125152588
0.3773818910121918
0.2681446671485901
0.15390437841415405
0.03685612231492996
-0.0807550922036171
-0.196740061044693
-0.30903154611587524
-0.4157354533672333
-0.5151510834693909
-0.6057760119438171
-0.6863041520118713
-0.755617082118988
-0.8127761483192444
-0.8570145964622498
-0.8877336978912354
-0.9044995903968811
-0.9070444703102112
-0.8952744603157043
-0.8692745566368103
-0.8293308019638062
-0.7759492993354797
-0.7098703980445862
-0.6320939660072327
-0.5438721179962158
-0.44670751690864563
-0.34231287240982056
-0.232570618391037
-0.11945819109678268
-0.004975996911525726
0.10892807692289352
0.2204289436340332
0.3298930823802948
0.406330406665802
0.4804786443710327
0.5512617230415344
0.617648184299469
0.6786612868309021
0.7333770990371704
0.7809188961982727
0.8204455375671387
0.8511382937431335
0.872185230255127
0.8827672004699707
0.8820523619651794
0.8691962361335754
0.8433650135993958
0.8037732243537903
0.7497586607933044
0.6808888912200928
0.5971011519432068
0.49886468052864075
0.3873414993286133
0.26449570059776306
0.13311323523521423
-0.003312520682811737
-0.14083942770957947
-0.2754121422767639
-0.40323933959007263
-0.5210949778556824
-0.6265040040016174
-0.7177879214286804
-0.7939946055412292
-0.8547601699829102
-0.9001402258872986
-0.9304506182670593
-0.9461396336555481
-0.9476941227912903
-0.935586154460907
-0.9102471470832825
-0.8720754981040955
-0.8214637041091919
-0.7588453888893127
-0.684751033782959
-0.5998743176460266
-0.5051321983337402
-0.40171149373054504
-0.2910921275615692
-0.17504116892814636
-0.05556470900774002
0.06515880674123764
0.18487733602523804
0.30136963725090027
0.41253674030303955
0.5164836645126343
0.6115683913230896
0.6964287161827087
0.7699732184410095
0.8313582539558411
0.8799497485160828
0.9152711033821106
0.9369688630104065
0.9447703957557678
0.9384766221046448
0.9179570078849792
0.8831780552864075
0.8342491388320923
0.7714774012565613
0.6954421997070312
0.6070553064346313
0.5076079368591309
0.3987719714641571
0.28257259726524353
0.1612919270992279
0.03735829144716263
-0.08678429573774338
-0.20879551768302917
-0.32651811838150024
-0.4380263388156891
-0.5416374206542969
-0.6359013915061951
-0.719580888748169
-0.7916284799575806
-0.8511635661125183
-0.8974628448486328
-0.9299408197402954
-0.9481499791145325
-0.951776921749115
-0.9406458735466003
-0.9147395491600037
-0.8742181062698364
-0.8194503784179688
-0.7510533332824707
-0.6699228286743164
-0.5772647857666016
-0.4745946228504181
-0.36373117566108704
-0.24674755334854126
-0.12589290738105774
-0.0035070255398750305
0.11809862405061722
0.2367420196533203
0.33350083231925964
0.41243430972099304
0.48963597416877747
0.5639439225196838
0.6342263221740723
0.6993904709815979
0.7583870887756348
0.8102055191993713
0.8538603186607361
0.8883772492408752
0.9127811789512634
0.9260743260383606
0.9272346496582031
0.9152207970619202
0.8890026807785034
0.847618579864502
0.790276288986206
0.7164981961250305
0.6263007521629333
0.5203947424888611
0.40035775303840637
0.268717497587204
0.12890386581420898
-0.014979548752307892
-0.15851658582687378
-0.29741695523262024
-0.42789825797080994
-0.5469613075256348
-0.6524860858917236
-0.7431876063346863
-0.8184818029403687
-0.8782928586006165
-0.9228711724281311
-0.9526432156562805
-0.968092143535614
-0.9696851372718811
-0.9578297734260559
-0.9328649640083313
-0.8950766921043396
-0.8447306752204895
-0.7821255326271057
-0.7076577544212341
-0.6218900680541992
-0.525630533695221
-0.4199911653995514
-0.30642497539520264
-0.18672862648963928
-0.06300634890794754
0.062422506511211395
0.18712493777275085
0.30869540572166443
0.4248617887496948
0.5335887670516968
0.633129894733429
0.7220445275306702
0.7991886138916016
0.8636767268180847
0.9148308634757996
0.9521328806877136
0.975178062915802
0.9836414456367493
0.9772685170173645
0.9558880925178528
0.919442355632782
0.8680498003959656
0.8020703196525574
0.7221832275390625
0.6294452548027039
0.5253198742866516
0.4116668403148651
0.29068344831466675
0.16479691863059998
0.03654130548238754
-0.09157554060220718
-0.21718108654022217
-0.3381190299987793
-0.4524839222431183
-0.5586258769035339
-0.655135452747345
-0.740818977355957
-0.8146674036979675
-0.8758323192596436
-0.9236070513725281
-0.9574105143547058
-0.9767776131629944
-0.9813576340675354
-0.970917284488678
-0.9453570246696472
-0.9047409892082214
-0.8493263125419617
-0.7796181440353394
-0.6964130997657776
-0.6008455753326416
-0.4944113790988922
-0.37897977232933044
-0.256748229265213
-0.13017535209655762
-0.001866169273853302
0.12555572390556335
0.24958980083465576
0.3299630582332611
0.4105992615222931
0.4901052415370941
0.5672401785850525
0.6407738327980042