# vtk DataFile Version 3.0
2D PINN Solution
ASCII
DATASET STRUCTURED_GRID
DIMENSIONS 100 100 1
POINTS 10000 float
-1.0 -1.0 0.0
-0.9797979797979798 -1.0 0.0
-0.9595959595959596 -1.0 0.0
-0.9393939393939394 -1.0 0.0
-0.9191919191919192 -1.0 0.0
-0.898989898989899 -1.0 0.0
-0.8787878787878788 -1.0 0.0
-0.8585858585858586 -1.0 0.0
-0.8383838383838383 -1.0 0.0
-0.8181818181818181 -1.0 0.0
-0.797979797979798 -1.0 0.0
-0.7777777777777778 -1.0 0.0
-0.7575757575757576 -1.0 0.0
-0.7373737373737373 -1.0 0.0
-0.7171717171717171 -1.0 0.0
-0.696969696969697 -1.0 0.0
-0.6767676767676767 -1.0 0.0
-0.6565656565656566 -1.0 0.0
-0.6363636363636364 -1.0 0.0
-0.6161616161616161 -1.0 0.0
-0.5959595959595959 -1.0 0.0
-0.5757575757575757 -1.0 0.0
-0.5555555555555556 -1.0 0.0
-0.5353535353535352 -1.0 0.0
-0.5151515151515151 -1.0 0.0
-0.4949494949494949 -1.0 0.0
-0.4747474747474747 -1.0 0.0
-0.4545454545454545 -1.0 0.0
-0.43434343434343425 -1.0 0.0
-0.41414141414141414 -1.0 0.0
-0.3939393939393939 -1.0 0.0
-0.3737373737373737 -1.0 0.0
-0.3535353535353535 -1.0 0.0
-0.33333333333333326 -1.0 0.0
-0.31313131313131304 -1.0 0.0
-0.2929292929292928 -1.0 0.0
-0.2727272727272727 -1.0 0.0
-0.2525252525252525 -1.0 0.0
-0.23232323232323226 -1.0 0.0
-0.21212121212121204 -1.0 0.0
-0.19191919191919182 -1.0 0.0
-0.1717171717171716 -1.0 0.0
-0.1515151515151515 -1.0 0.0
-0.13131313131313127 -1.0 0.0
-0.11111111111111105 -1.0 0.0
-0.09090909090909083 -1.0 0.0
-0.07070707070707061 -1.0 0.0
-0.050505050505050386 -1.0 0.0
-0.030303030303030276 -1.0 0.0
-0.010101010101010055 -1.0 0.0
0.010101010101010166 -1.0 0.0
0.030303030303030498 -1.0 0.0
0.05050505050505061 -1.0 0.0
0.07070707070707072 -1.0 0.0
0.09090909090909105 -1.0 0.0
0.11111111111111116 -1.0 0.0
0.1313131313131315 -1.0 0.0
0.1515151515151516 -1.0 0.0
0.1717171717171717 -1.0 0.0
0.19191919191919204 -1.0 0.0
0.21212121212121215 -1.0 0.0
0.2323232323232325 -1.0 0.0
0.2525252525252526 -1.0 0.0
0.27272727272727293 -1.0 0.0
0.29292929292929304 -1.0 0.0
0.31313131313131315 -1.0 0.0
0.3333333333333335 -1.0 0.0
0.3535353535353536 -1.0 0.0
0.3737373737373739 -1.0 0.0
0.39393939393939403 -1.0 0.0
0.41414141414141437 -1.0 0.0
0.4343434343434345 -1.0 0.0
0.4545454545454546 -1.0 0.0
0.4747474747474749 -1.0 0.0
0.49494949494949503 -1.0 0.0
0.5151515151515154 -1.0 0.0
0.5353535353535355 -1.0 0.0
0.5555555555555556 -1.0 0.0
0.5757575757575759 -1.0 0.0
0.595959595959596 -1.0 0.0
0.6161616161616164 -1.0 0.0
0.6363636363636365 -1.0 0.0
0.6565656565656568 -1.0 0.0
0.6767676767676769 -1.0 0.0
0.696969696969697 -1.0 0.0
0.7171717171717173 -1.0 0.0
0.7373737373737375 -1.0 0.0
0.7575757575757578 -1.0 0.0
0.7777777777777779 -1.0 0.0
0.7979797979797982 -1.0 0.0
0.8181818181818183 -1.0 0.0
0.8383838383838385 -1.0 0.0
0.8585858585858588 -1.0 0.0
0.8787878787878789 -1.0 0.0
0.8989898989898992 -1.0 0.0
0.9191919191919193 -1.0 0.0
0.9393939393939394 -1.0 0.0
0.9595959595959598 -1.0 0.0
0.9797979797979799 -1.0 0.0
1.0 -1.0 0.0
-1.0 -0.9797979797979798 0.0
-0.9797979797979798 -0.9797979797979798 0.0
-0.9595959595959596 -0.9797979797979798 0.0
-0.9393939393939394 -0.9797979797979798 0.0
-0.9191919191919192 -0.9797979797979798 0.0
-0.898989898989899 -0.9797979797979798 0.0
-0.8787878787878788 -0.9797979797979798 0.0
-0.8585858585858586 -0.9797979797979798 0.0
-0.8383838383838383 -0.9797979797979798 0.0
-0.8181818181818181 -0.9797979797979798 0.0
-0.797979797979798 -0.9797979797979798 0.0
-0.7777777777777778 -0.9797979797979798 0.0
-0.7575757575757576 -0.9797979797979798 0.0
-0.7373737373737373 -0.9797979797979798 0.0
-0.7171717171717171 -0.9797979797979798 0.0
-0.696969696969697 -0.9797979797979798 0.0
-0.6767676767676767 -0.9797979797979798 0.0
-0.6565656565656566 -0.9797979797979798 0.0
-0.6363636363636364 -0.9797979797979798 0.0
-0.6161616161616161 -0.9797979797979798 0.0
-0.5959595959595959 -0.9797979797979798 0.0
-0.5757575757575757 -0.9797979797979798 0.0
-0.5555555555555556 -0.9797979797979798 0.0
-0.5353535353535352 -0.9797979797979798 0.0
-0.5151515151515151 -0.9797979797979798 0.0
-0.4949494949494949 -0.9797979797979798 0.0
-0.4747474747474747 -0.9797979797979798 0.0
-0.4545454545454545 -0.9797979797979798 0.0
-0.43434343434343425 -0.9797979797979798 0.0
-0.41414141414141414 -0.9797979797979798 0.0
-0.3939393939393939 -0.9797979797979798 0.0
-0.3737373737373737 -0.9797979797979798 0.0
-0.3535353535353535 -0.9797979797979798 0.0
-0.33333333333333326 -0.9797979797979798 0.0
-0.31313131313131304 -0.9797979797979798 0.0
-0.2929292929292928 -0.9797979797979798 0.0
-0.2727272727272727 -0.9797979797979798 0.0
-0.2525252525252525 -0.9797979797979798 0.0
-0.23232323232323226 -0.9797979797979798 0.0
-0.21212121212121204 -0.9797979797979798 0.0
-0.19191919191919182 -0.9797979797979798 0.0
-0.1717171717171716 -0.9797979797979798 0.0
-0.1515151515151515 -0.9797979797979798 0.0
-0.13131313131313127 -0.9797979797979798 0.0
-0.11111111111111105 -0.9797979797979798 0.0
-0.09090909090909083 -0.9797979797979798 0.0
-0.07070707070707061 -0.9797979797979798 0.0
-0.050505050505050386 -0.9797979797979798 0.0
-0.030303030303030276 -0.9797979797979798 0.0
-0.010101010101010055 -0.9797979797979798 0.0
0.010101010101010166 -0.9797979797979798 0.0
0.030303030303030498 -0.9797979797979798 0.0
0.05050505050505061 -0.9797979797979798 0.0
0.07070707070707072 -0.9797979797979798 0.0
0.09090909090909105 -0.9797979797979798 0.0
0.11111111111111116 -0.9797979797979798 0.0
0.1313131313131315 -0.9797979797979798 0.0
0.1515151515151516 -0.9797979797979798 0.0
0.1717171717171717 -0.9797979797979798 0.0
0.19191919191919204 -0.9797979797979798 0.0
0.21212121212121215 -0.9797979797979798 0.0
0.2323232323232325 -0.9797979797979798 0.0
0.2525252525252526 -0.9797979797979798 0.0
0.27272727272727293 -0.9797979797979798 0.0
0.29292929292929304 -0.9797979797979798 0.0
0.31313131313131315 -0.9797979797979798 0.0
0.3333333333333335 -0.9797979797979798 0.0
0.3535353535353536 -0.9797979797979798 0.0
0.3737373737373739 -0.9797979797979798 0.0
0.39393939393939403 -0.9797979797979798 0.0
0.41414141414141437 -0.9797979797979798 0.0
0.4343434343434345 -0.9797979797979798 0.0
0.4545454545454546 -0.9797979797979798 0.0
0.4747474747474749 -0.9797979797979798 0.0
0.49494949494949503 -0.9797979797979798 0.0
0.5151515151515154 -0.9797979797979798 0.0
0.5353535353535355 -0.9797979797979798 0.0
0.5555555555555556 -0.9797979797979798 0.0
0.5757575757575759 -0.9797979797979798 0.0
0.595959595959596 -0.9797979797979798 0.0
0.6161616161616164 -0.9797979797979798 0.0
0.6363636363636365 -0.9797979797979798 0.0
0.6565656565656568 -0.9797979797979798 0.0
0.6767676767676769 -0.9797979797979798 0.0
0.696969696969697 -0.9797979797979798 0.0
0.7171717171717173 -0.9797979797979798 0.0
0.7373737373737375 -0.9797979797979798 0.0
0.7575757575757578 -0.9797979797979798 0.0
0.7777777777777779 -0.9797979797979798 0.0
0.7979797979797982 -0.9797979797979798 0.0
0.8181818181818183 -0.9797979797979798 0.0
0.8383838383838385 -0.9797979797979798 0.0
0.8585858585858588 -0.9797979797979798 0.0
0.8787878787878789 -0.9797979797979798 0.0
0.8989898989898992 -0.9797979797979798 0.0
0.9191919191919193 -0.9797979797979798 0.0
0.9393939393939394 -0.9797979797979798 0.0
0.9595959595959598 -0.9797979797979798 0.0
0.9797979797979799 -0.9797979797979798 0.0
1.0 -0.9797979797979798 0.0
-1.0 -0.9595959595959596 0.0
-0.9797979797979798 -0.9595959595959596 0.0
-0.9595959595959596 -0.9595959595959596 0.0
-0.9393939393939394 -0.9595959595959596 0.0
-0.9191919191919192 -0.9595959595959596 0.0
-0.898989898989899 -0.9595959595959596 0.0
-0.8787878787878788 -0.9595959595959596 0.0
-0.8585858585858586 -0.9595959595959596 0.0
-0.8383838383838383 -0.9595959595959596 0.0
-0.8181818181818181 -0.9595959595959596 0.0
-0.797979797979798 -0.9595959595959596 0.0
-0.7777777777777778 -0.9595959595959596 0.0
-0.7575757575757576 -0.9595959595959596 0.0
-0.7373737373737373 -0.9595959595959596 0.0
-0.7171717171717171 -0.9595959595959596 0.0
-0.696969696969697 -0.9595959595959596 0.0
-0.6767676767676767 -0.9595959595959596 0.0
-0.6565656565656566 -0.9595959595959596 0.0
-0.6363636363636364 -0.9595959595959596 0.0
-0.6161616161616161 -0.9595959595959596 0.0
-0.5959595959595959 -0.9595959595959596 0.0
-0.5757575757575757 -0.9595959595959596 0.0
-0.5555555555555556 -0.9595959595959596 0.0
-0.5353535353535352 -0.9595959595959596 0.0
-0.5151515151515151 -0.9595959595959596 0.0
-0.4949494949494949 -0.9595959595959596 0.0
-0.4747474747474747 -0.9595959595959596 0.0
-0.4545454545454545 -0.9595959595959596 0.0
-0.43434343434343425 -0.9595959595959596 0.0
-0.41414141414141414 -0.9595959595959596 0.0
-0.3939393939393939 -0.9595959595959596 0.0
-0.3737373737373737 -0.9595959595959596 0.0
-0.3535353535353535 -0.9595959595959596 0.0
-0.33333333333333326 -0.9595959595959596 0.0
-0.31313131313131304 -0.9595959595959596 0.0
-0.2929292929292928 -0.9595959595959596 0.0
-0.2727272727272727 -0.9595959595959596 0.0
-0.2525252525252525 -0.9595959595959596 0.0
-0.23232323232323226 -0.9595959595959596 0.0
-0.21212121212121204 -0.9595959595959596 0.0
-0.19191919191919182 -0.9595959595959596 0.0
-0.1717171717171716 -0.9595959595959596 0.0
-0.1515151515151515 -0.9595959595959596 0.0
-0.13131313131313127 -0.9595959595959596 0.0
-0.11111111111111105 -0.9595959595959596 0.0
-0.09090909090909083 -0.9595959595959596 0.0
-0.07070707070707061 -0.9595959595959596 0.0
-0.050505050505050386 -0.9595959595959596 0.0
-0.030303030303030276 -0.9595959595959596 0.0
-0.010101010101010055 -0.9595959595959596 0.0
0.010101010101010166 -0.9595959595959596 0.0
0.030303030303030498 -0.9595959595959596 0.0
0.05050505050505061 -0.9595959595959596 0.0
0.07070707070707072 -0.9595959595959596 0.0
0.09090909090909105 -0.9595959595959596 0.0
0.11111111111111116 -0.9595959595959596 0.0
0.1313131313131315 -0.9595959595959596 0.0
0.1515151515151516 -0.9595959595959596 0.0
0.1717171717171717 -0.9595959595959596 0.0
0.19191919191919204 -0.9595959595959596 0.0
0.21212121212121215 -0.9595959595959596 0.0
[...]
POINT_DATA 10000
SCALARS u float 1
LOOKUP_TABLE default
0.6167657375335693
0.5388935804367065
0.45205482840538025
0.3589356243610382
0.2620175778865814
0.163394957780838
0.06471215933561325
-0.03277907520532608
-0.12810015678405762
-0.2203931212425232
-0.30880114436149597
-0.39238524436950684
-0.4701039493083954
-0.5408387780189514
-0.603452742099762
-0.6568551659584045
-0.7000660300254822
-0.7322657108306885
-0.7528299689292908
-0.7613509297370911
-0.7576557993888855
-0.7418174743652344
-0.7141662836074829
-0.6752884984016418
-0.6260108947753906
-0.5673603415489197
-0.5005056858062744
-0.42667558789253235
-0.3470834493637085
-0.2628648579120636
-0.1750417947769165
-0.08453253656625748
0.0078038498759269714
0.10109933465719223
0.19439294934272766
0.2865596115589142
0.3762604296207428
0.46192148327827454
0.541763424873352
0.6138644814491272
0.6762621998786926
0.7270810008049011
0.7646685838699341
0.7877364754676819
0.7954825162887573
0.7876913547515869
0.7647804617881775
0.7277764081954956
0.6782088875770569
0.6179265975952148
0.5488742589950562
0.4728942811489105
0.39158162474632263
0.3062269985675812
0.21784746646881104
0.12726661562919617
0.03522434085607529
-0.05751306563615799
-0.1500643789768219
-0.24136883020401
-0.33016279339790344
-0.4149903357028961
-0.4942615330219269
-0.5663356781005859
-0.6296313405036926
-0.682733952999115
-0.7244850993156433
-0.754036545753479
-0.7708728909492493
-0.7747964859008789
-0.7658909559249878
-0.7444795966148376
-0.7110705375671387
-0.666316568851471
-0.6109896898269653
-0.5459617972373962
-0.4721978008747101
-0.3907643258571625
-0.30283138155937195
-0.2096879780292511
-0.11274910718202591
-0.013562925159931183
0.08619631081819534
0.18474605679512024
0.280239075422287
0.370824933052063
0.45473194122314453
0.5303619503974915
0.5963711142539978
0.6517313718795776
0.6957663893699646
0.7281445860862732
0.748857319355011
0.7581660747528076
0.7565560936927795
0.7446867823600769
0.7233566641807556
0.6934817433357239
0.6560813188552856
0.6122738122940063
0.5304444432258606
0.460567444562912
0.38465413451194763
0.30488529801368713
0.2230076789855957
0.14028289914131165
0.05754270404577255
-0.02466268092393875
-0.105896957218647
-0.18567875027656555
-0.26335570216178894
-0.33805468678474426
-0.40867361426353455
-0.4739404022693634
-0.5325005650520325
-0.5830132365226746
-0.6242532730102539
-0.6551914811134338
-0.6750526428222656
-0.6833579540252686
-0.6799498796463013
-0.6650004386901855
-0.6389982104301453
-0.6027273535728455
-0.557203471660614
-0.5036026835441589
-0.4431592524051666
-0.3770705759525299
-0.30641934275627136
-0.23212257027626038
-0.15493559837341309
-0.07548796385526657
0.0056388601660728455
0.08782830089330673
0.1703350841999054
0.25220876932144165
0.33224788308143616
0.40897807478904724
0.48068252205848694
0.5454661250114441
0.6013756394386292
0.6465440392494202
0.679364025592804
0.6986586451530457
0.703820526599884
0.6949008107185364
0.6726049780845642
0.6382052898406982
0.5933454036712646
0.5398147106170654
0.47932061553001404
0.4133237898349762
0.34297266602516174
0.26912301778793335
0.192417711019516
0.11340100318193436
0.03262148052453995
-0.04927702993154526
-0.1314883828163147
-0.21301057934761047
-0.292631059885025
-0.368949294090271
-0.440430611371994
-0.505483090877533
-0.5625630021095276
-0.6102797389030457
-0.6475003957748413
-0.6734115481376648
-0.6875531673431396
-0.6898054480552673
-0.6803544163703918
-0.659627377986908
-0.6282431483268738
-0.5869511365890503
-0.5365967154502869
-0.47808846831321716
-0.4123813807964325
-0.3404676020145416
-0.2633689045906067
-0.18214526772499084
-0.0978957787156105
-0.01178441196680069
0.07494824379682541
0.1609618067741394
0.24482014775276184
0.3250115215778351
0.39999014139175415
0.4682592451572418
0.5284473896026611
0.5794017910957336
0.6202446818351746
0.6504145860671997
0.6696767210960388
0.6780969500541687
0.6760166883468628
0.6640138626098633
0.6428598761558533
0.6135005354881287
0.5770257711410522
0.5346579551696777
0.43684712052345276
0.37755832076072693
0.31484362483024597
0.2501964569091797
0.18458127975463867
0.11849694699048996
0.05211343616247177
-0.014547474682331085
-0.08143717795610428
-0.14832809567451477
-0.21471241116523743
-0.27976295351982117
-0.342342734336853
-0.40107497572898865
-0.4544443190097809
-0.500929594039917
-0.5391219258308411
-0.5678429007530212
-0.5862269997596741
-0.5937837362289429
-0.5904220938682556
-0.5764449834823608
-0.5525240302085876
-0.5196241140365601
-0.4789052903652191
-0.4316084682941437
-0.37893375754356384
-0.32194575667381287
-0.2615049183368683
-0.19825983047485352
-0.1326819360256195
-0.06513629108667374
0.00402473658323288
0.07436519116163254
0.14527824521064758
0.21592161059379578
0.2851787209510803
0.35165324807167053
0.41370323300361633
0.4695236384868622
0.5172688961029053
0.555216908454895
0.5819623470306396
0.596589982509613
0.5988125801086426
0.5890094041824341
0.5681623220443726
0.537684977054596
0.49917134642601013
0.45415544509887695
0.4039246141910553
0.349435955286026
0.29133155941963196
0.23003312945365906
0.1658560037612915
0.09912820905447006
0.030280552804470062
-0.04009460657835007
-0.11121100932359695
-0.18207859992980957
-0.2515133321285248
-0.31817150115966797
-0.38060224056243896
-0.437321275472641
-0.48690083622932434
-0.5280745029449463
-0.5598176717758179
-0.5814259648323059
-0.5925325155258179
-0.5931065678596497
-0.5834102630615234
-0.5639416575431824
-0.5353731513023376
-0.4984925091266632
-0.4541655480861664
-0.40329110622406006
-0.3467811048030853
-0.28553101420402527
-0.22040891647338867
-0.15224912762641907
-0.08185634762048721
-0.010030381381511688
0.062396757304668427
0.13452181220054626
0.20533055067062378
0.2736823558807373
0.33831849694252014
0.3979114294052124
0.4511392414569855
0.4967796504497528
0.5337972640991211
0.5614198446273804
0.5791828036308289
0.5869434475898743
0.584876537322998
0.5734455585479736
0.5533743500709534
0.5256125926971436
0.49129992723464966
0.4517315626144409
0.33925074338912964
0.2925577461719513
0.24453416466712952
0.1959298849105835
0.1469990313053131
0.09762492030858994
0.04749622195959091
-0.0037228241562843323
-0.05622798949480057
-0.10995656996965408
-0.16450059413909912
-0.2190786898136139
-0.27255526185035706
-0.3235096037387848
-0.3703521192073822
-0.41146326065063477
-0.44534435868263245
-0.47075143456459045
-0.48681047558784485
-0.4930844008922577
-0.48960015177726746
-0.47682681679725647
-0.45559969544410706
-0.4270165264606476
-0.3922947645187378
-0.35262930393218994
-0.30907222628593445
-0.2624494135379791
-0.21333438158035278
-0.16207808256149292
-0.10887793451547623
-0.05387244373559952
0.002753116190433502
0.06067463010549545
0.11935486644506454
0.17799538373947144
0.235520601272583
0.29059043526649475
0.34165680408477783
0.3870602548122406
0.42516645789146423
0.45454397797584534
0.4741460978984833
0.4834706485271454
0.48264679312705994
0.47240790724754333
0.4539424180984497
0.428657203912735
0.3979160189628601
0.3628261983394623
0.3241325914859772
0.2822263538837433
0.23724502325057983
0.1892116665840149
0.13817140460014343
0.08429735153913498
0.027954958379268646
-0.030271850526332855
-0.08958015590906143
-0.14896857738494873
-0.2072708010673523
-0.263201504945755
-0.3154192268848419
-0.36259666085243225
-0.40350082516670227
-0.4370729625225067
-0.46249738335609436
-0.47924795746803284
-0.48709872364997864
-0.4861166775226593
-0.4766128957271576
-0.45909926295280457
-0.4342315196990967
-0.4027676284313202
-0.3655237853527069
-0.3233363628387451
-0.2770317494869232
-0.2273881733417511
-0.1751120686531067
-0.12082620710134506
-0.06506793946027756
-0.00831664353609085
0.04896218329668045
0.10625901073217392
0.1629636287689209
0.21830961108207703
0.27136003971099854
0.3210221230983734
0.36609846353530884
0.40538278222084045
0.4377535879611969
0.4622795283794403
0.4782979488372803
0.4854642450809479
0.4837750494480133
0.4735635817050934
0.45547613501548767
0.4304310977458954
0.39957699179649353
0.36424291133880615
0.2404232919216156
0.20757901668548584
0.17492511868476868
0.14253172278404236
0.11007719486951828
0.0770084485411644
0.042700670659542084
0.0066137537360191345
-0.03158838301897049
-0.07193625718355179
-0.11409471184015274
-0.15733841061592102
-0.20057281851768494
-0.24240654706954956
-0.28126436471939087
-0.31553494930267334
-0.34373757243156433
-0.36467644572257996
-0.3775613009929657
-0.3820857107639313
-0.3784389793872833
-0.36725088953971863
-0.349482923746109
-0.326276034116745
-0.2987869083881378
-0.26804131269454956
-0.2348286211490631
-0.1996581256389618
-0.1627766191959381
-0.12423653155565262
-0.08399156481027603
-0.042006440460681915
0.0016408786177635193
0.046677254140377045
0.09258046001195908
0.13855135440826416
0.18352562189102173
0.22621315717697144
0.2651856243610382
0.2989911735057831
0.3263114392757416
0.3461340069770813
0.35791048407554626
0.3616606891155243
0.3579776883125305
0.34790870547294617
0.3327326476573944
0.31369465589523315
0.29176774621009827
0.267521470785141
0.24110978841781616
0.21237081289291382
0.18098193407058716
0.1466314196586609
0.1091490164399147
0.06859707087278366
0.02530408650636673
-0.02013906091451645
-0.06690678745508194
-0.11398666352033615
-0.1602354645729065
-0.20444318652153015
-0.24540773034095764
-0.28200092911720276
-0.31324371695518494
-0.3383590281009674
-0.3568130433559418
-0.36832284927368164
-0.3728446662425995
-0.3705427944660187
-0.3617509603500366
-0.3469378650188446
-0.3266744017601013
-0.30160853266716003
-0.2724404036998749
-0.23988524079322815
-0.20463955402374268
-0.16733884811401367
-0.1285230815410614
-0.08861667662858963
-0.04792536050081253
-0.006659545004367828
0.03502195328474045
0.07694651931524277
0.11885600537061691
0.1603395938873291
0.20079156756401062
0.23939573764801025
0.2751578092575073
0.3069742023944855
0.3337336480617523
0.3544275462627411
0.368257611989975
0.37471380829811096
0.37362757325172424
0.36519142985343933
0.3499411642551422
0.3287254869937897
0.30264827609062195
0.2730090320110321
0.14245495200157166
0.12393023818731308
0.10660668462514877
0.09000199288129807
0.07338463515043259
0.055925510823726654
0.036833249032497406
0.015470527112483978
-0.00855729728937149
-0.03532914072275162
-0.06456554681062698
-0.09560958296060562
-0.1274546980857849
-0.15880903601646423
-0.18820640444755554
-0.2141653597354889
-0.2353457510471344
-0.2507155239582062
-0.25967586040496826
-0.2621188163757324
-0.2584172487258911
-0.24933335185050964
-0.23587265610694885
-0.21910503506660461
-0.19999897480010986
-0.17929041385650635
-0.15742039680480957
-0.13453587889671326
-0.11055067926645279
-0.08524251729249954
-0.05836700648069382
-0.02976755052804947
0.0005338117480278015
0.032269515097141266
0.06489511579275131
0.09758900851011276
0.1292942762374878
0.1587897539138794
0.18480834364891052
0.20617973804473877
0.22199669480323792
0.2317688763141632
0.2355317771434784
0.23386648297309875
0.22779890894889832
0.21859058737754822
0.2074717879295349
0.1953832507133484
0.18281328678131104
0.16976207494735718
0.1558246612548828
0.140353262424469
0.12264985591173172
0.10213714092969894
0.07848019152879715
0.05165397375822067
0.021953143179416656
-0.010033883154392242
-0.04348012059926987
-0.07738866657018661
-0.11067201942205429
-0.14223197102546692
-0.17104047536849976
-0.19621101021766663
-0.21706271171569824
-0.23314547538757324
-0.24424567818641663
-0.2503577172756195
-0.2516336441040039
-0.24833756685256958
-0.24079960584640503
-0.22940227389335632
-0.21457204222679138
-0.19678401947021484
-0.17655590176582336
-0.1544247567653656
-0.13091593980789185
-0.10649178177118301
-0.08152072876691818
-0.0562429204583168
-0.030765540897846222
-0.005081437528133392
0.020891524851322174
0.04724537581205368
0.07401605695486069
0.10110300034284592
0.12821558117866516
0.1548384130001068
0.18023216724395752
0.20348665118217468
0.22360500693321228
0.23960423469543457
0.25063878297805786
0.25609883666038513
0.2556854784488678
0.24945107102394104
0.23780062794685364
0.22146457433700562
0.20143616199493408
0.17891141772270203
0.04674317687749863
0.04231848567724228
0.03972708433866501
0.03808929771184921
0.03641655296087265
0.033736638724803925
0.02919449657201767
0.022131137549877167
0.012145154178142548
-0.0008633509278297424
-0.016663886606693268
-0.03468722850084305
-0.054057635366916656
-0.07365543395280838
-0.09222755581140518
-0.10853270441293716
-0.12150184065103531
-0.13038906455039978
-0.13487502932548523
-0.13509684801101685
-0.13160023093223572
-0.12521731853485107
-0.11688966304063797
-0.10749397426843643
-0.09769139438867569
-0.08784405142068863
-0.07799670845270157
-0.06792671233415604
-0.05723731964826584
-0.04547487944364548
-0.03224492818117142
-0.017315171658992767
-0.0006913319230079651
0.01733981817960739
0.03619963675737381
0.05504923313856125
0.07286287099123001
0.08853410929441452
0.1010228618979454
0.10952173918485641
0.11361505836248398
0.11339249461889267
0.10948879271745682
0.10299006849527359
0.09524529427289963
0.08758433908224106
0.08104800432920456
0.07618711143732071
0.07298829406499863
0.07093266397714615
0.06914912909269333
0.06661670655012131
0.062358103692531586
0.05560573190450668
0.04589887708425522
0.033134572207927704
0.017559997737407684
-0.0002746507525444031
-0.019584737718105316
-0.03944224864244461
-0.058871038258075714
-0.07693912833929062
-0.09284389764070511
-0.1059870794415474
-0.11601071804761887
-0.12280585616827011
-0.12647822499275208
-0.1272832155227661
-0.12555959820747375
-0.12164971977472305
-0.1158699169754982
-0.10849126428365707
-0.09976749867200851
-0.0899563804268837
-0.07934463769197464
-0.06824033707380295
-0.05695178359746933
-0.045745186507701874
-0.03480314463376999
-0.024191267788410187
-0.013849414885044098
-0.0036013051867485046
0.006814904510974884
0.017689503729343414
0.029282711446285248
0.04174747318029404
0.055076174437999725
0.06904924660921097
0.08322031050920486
0.0969427153468132
0.10942525416612625
0.11982528120279312
0.12735602259635925
0.13139426708221436
0.1315668225288391
0.12781000137329102
0.12038058787584305
0.1098409965634346
0.09701400250196457
0.08290288597345352
-0.04588685184717178
-0.03697050362825394
-0.025807835161685944
-0.013531006872653961
-0.0012630894780158997
0.009976707398891449
0.019334696233272552
0.02617790549993515
0.030122779309749603
0.031058840453624725
0.029163621366024017
0.024893127381801605
0.018944554030895233
0.01219155639410019
0.005580149590969086
-5.282461643218994e-06
-0.0038828030228614807
-0.00568554550409317
-0.005434222519397736
-0.00351763516664505
-0.0006091967225074768
0.0024860426783561707
0.004999987781047821
0.006360374391078949
0.006289385259151459
0.004841141402721405
0.002366386353969574
-0.0005710944533348083
-0.003312341868877411
-0.0052206143736839294
-0.005795590579509735
-0.004763416945934296
-0.0021308138966560364
0.001789085566997528
0.006400756537914276
0.010881863534450531
0.01429285854101181
0.0157143697142601
0.014420442283153534
0.01004568487405777
0.0027144774794578552
-0.0069016143679618835
-0.017645426094532013
-0.028057508170604706
-0.036645568907260895
-0.04217322915792465
-0.04389313608407974
-0.04167052358388901
-0.03596165031194687
-0.027691282331943512
-0.018057428300380707
-0.008328311145305634
0.00034784525632858276
0.007076956331729889
0.011307500302791595
0.012854702770709991
0.011889956891536713
0.008878402411937714
0.0044951364398002625
-0.0004718676209449768
-0.005232430994510651
-0.009093604981899261
-0.01154433935880661
-0.012309961020946503
-0.011373549699783325
-0.00894426554441452
-0.005404561758041382
-0.0012265518307685852
0.0031220391392707825
0.0072414204478263855
0.010848961770534515
0.013775266706943512
0.015943504869937897
0.01732262223958969
0.01788518577814102
0.017587684094905853
0.01637618988752365
0.01421300321817398
0.01111658662557602
0.007189251482486725
0.0026382431387901306
-0.0022278353571891785
-0.007022075355052948
-0.0113149955868721
-0.014688052237033844
-0.016789846122264862
-0.01739329844713211
-0.016442902386188507
-0.014080829918384552
-0.01064588874578476
-0.006645046174526215
-0.002681545913219452
0.000624142587184906
0.002735428512096405
0.0032763853669166565
0.002102084457874298
-0.0006767287850379944
-0.00469670444726944
-0.00937972217798233
-0.013988591730594635
-0.13500666618347168
-0.11387244611978531
-0.09015626460313797
-0.06511957198381424
-0.03992817550897598
-0.01559225469827652
0.007076762616634369
0.027487121522426605
0.0452779158949852
0.06032618135213852
0.07273402065038681
0.08280789107084274
0.09101446717977524
0.09790676087141037
0.10403301566839218
0.10982387512922287
0.11549269407987595
0.12096890062093735
0.1258852183818817
0.1296405792236328
0.131519615650177
0.13084688782691956
0.12712755799293518
0.12016164511442184
0.11008354276418686
0.0973474308848381
0.08265598863363266
0.0668526366353035
0.05080265551805496
0.035273872315883636
0.02083747833967209
0.007793210446834564
-0.0038659051060676575
-0.014454342424869537
-0.0245460644364357
-0.03488064557313919
-0.04622837156057358
-0.05922568589448929
-0.07419496029615402
-0.0909993126988411
-0.10896731168031693
-0.12691980600357056
-0.143326073884964
-0.1565534770488739
-0.1651587188243866
-0.168145090341568
-0.1651161015033722
-0.1563105583190918
-0.14252212643623352
-0.1249290481209755
-0.10490614920854568
-0.08383240550756454
-0.06293132156133652
-0.04315938800573349
-0.025139220058918
-0.009142391383647919
0.004885949194431305
0.01726626604795456
0.02849092334508896
0.03912133723497391
0.049672774970531464
0.06051815301179886
0.07181986421346664
0.08349616080522537
0.0952339842915535
0.10654453188180923
0.11684001237154007
0.12551620602607727
0.13203957676887512
0.13599738478660583
0.13714146614074707
0.13539117574691772
0.13081681728363037
0.12359610944986343
0.11395830661058426
0.10214262455701828
0.08837690204381943
0.07287979871034622
0.05588781088590622
0.037679098546504974
0.018595926463603973
-0.0009488537907600403
-0.02047719806432724
-0.03947217017412186
-0.05740470439195633
-0.0737834945321083
-0.0881912037730217
-0.10032849758863449
-0.11004631966352463
-0.11735860258340836
-0.12243462353944778
-0.12556609511375427
-0.12711337208747864
-0.12743830680847168
-0.126837819814682
-0.12548714876174927
-0.12340561300516129
-0.12045206874608994
-0.11633460968732834
-0.11064855009317398
-0.22039136290550232
-0.18837383389472961
-0.15340057015419006
-0.11676851660013199
-0.07962963730096817
-0.042949236929416656
-0.007487751543521881
0.026204101741313934
0.057775966823101044
0.08706536144018173
0.11406388133764267
0.13888075947761536
0.16168731451034546
0.1826440393924713
0.2018265426158905
0.2191469371318817
0.23431169986724854
0.24681773781776428
0.2559966444969177
0.26112890243530273
0.26155880093574524
0.2568371891975403
0.24680399894714355
0.23164668679237366
0.21188193559646606
0.18830522894859314
0.1618882119655609
0.13367876410484314
0.10468002408742905
0.07574460655450821
0.04749234765768051
0.020250938832759857
-0.005963586270809174
-0.031418509781360626
-0.056592173874378204
-0.08205186575651169
-0.10829363018274307
-0.13556760549545288
-0.16371777653694153
-0.19208398461341858
-0.2195042371749878
-0.2444327175617218
-0.26516595482826233
-0.2801113724708557
-0.2880516052246094
-0.2883215844631195
-0.28087469935417175
-0.26624640822410583
-0.24542614817619324
-0.21969690918922424
-0.1904626190662384
-0.15909066796302795
-0.12679153680801392
-0.09453371912240982
-0.06299341470003128
-0.03254667669534683
-0.003296591341495514
0.02486514300107956
0.05216708034276962
0.0788516029715538
0.1050727441906929
0.13081467151641846
0.15584340691566467
0.1797158420085907
0.20181986689567566
0.22145497798919678
0.23790568113327026
0.25052377581596375
0.25877273082733154
0.2622702717781067
0.26080942153930664
0.2543784976005554
0.24315127730369568
0.22746974229812622
0.2077900767326355
0.18462461233139038
0.15849417448043823
0.12989363074302673
0.09929785877466202
0.06717347353696823
0.03399872034788132
0.0002821311354637146
-0.03343009203672409