# vtk DataFile Version 3.0
2D PINN Solution
ASCII
DATASET STRUCTURED_GRID
DIMENSIONS 100 100 1
POINTS 10000 float
-1.0 -1.0 0.0
-0.9797979797979798 -1.0 0.0
-0.9595959595959596 -1.0 0.0
-0.9393939393939394 -1.0 0.0
-0.9191919191919192 -1.0 0.0
-0.898989898989899 -1.0 0.0
-0.8787878787878788 -1.0 0.0
-0.8585858585858586 -1.0 0.0
-0.8383838383838383 -1.0 0.0
-0.8181818181818181 -1.0 0.0
-0.797979797979798 -1.0 0.0
-0.7777777777777778 -1.0 0.0
-0.7575757575757576 -1.0 0.0
-0.7373737373737373 -1.0 0.0
-0.7171717171717171 -1.0 0.0
-0.696969696969697 -1.0 0.0
-0.6767676767676767 -1.0 0.0
-0.6565656565656566 -1.0 0.0
-0.6363636363636364 -1.0 0.0
-0.6161616161616161 -1.0 0.0
-0.5959595959595959 -1.0 0.0
-0.5757575757575757 -1.0 0.0
-0.5555555555555556 -1.0 0.0
-0.5353535353535352 -1.0 0.0
-0.5151515151515151 -1.0 0.0
-0.4949494949494949 -1.0 0.0
-0.4747474747474747 -1.0 0.0
-0.4545454545454545 -1.0 0.0
-0.43434343434343425 -1.0 0.0
-0.41414141414141414 -1.0 0.0
-0.3939393939393939 -1.0 0.0
-0.3737373737373737 -1.0 0.0
-0.3535353535353535 -1.0 0.0
-0.33333333333333326 -1.0 0.0
-0.31313131313131304 -1.0 0.0
-0.2929292929292928 -1.0 0.0
-0.2727272727272727 -1.0 0.0
-0.2525252525252525 -1.0 0.0
-0.23232323232323226 -1.0 0.0
-0.21212121212121204 -1.0 0.0
-0.19191919191919182 -1.0 0.0
-0.1717171717171716 -1.0 0.0
-0.1515151515151515 -1.0 0.0
-0.13131313131313127 -1.0 0.0
-0.11111111111111105 -1.0 0.0
-0.09090909090909083 -1.0 0.0
-0.07070707070707061 -1.0 0.0
-0.050505050505050386 -1.0 0.0
-0.030303030303030276 -1.0 0.0
-0.010101010101010055 -1.0 0.0
0.010101010101010166 -1.0 0.0
0.030303030303030498 -1.0 0.0
0.05050505050505061 -1.0 0.0
0.07070707070707072 -1.0 0.0
0.09090909090909105 -1.0 0.0
0.11111111111111116 -1.0 0.0
0.1313131313131315 -1.0 0.0
0.1515151515151516 -1.0 0.0
0.1717171717171717 -1.0 0.0
0.19191919191919204 -1.0 0.0
0.21212121212121215 -1.0 0.0
0.2323232323232325 -1.0 0.0
0.2525252525252526 -1.0 0.0
0.27272727272727293 -1.0 0.0
0.29292929292929304 -1.0 0.0
0.31313131313131315 -1.0 0.0
0.3333333333333335 -1.0 0.0
0.3535353535353536 -1.0 0.0
0.3737373737373739 -1.0 0.0
0.39393939393939403 -1.0 0.0
0.41414141414141437 -1.0 0.0
0.4343434343434345 -1.0 0.0
0.4545454545454546 -1.0 0.0
0.4747474747474749 -1.0 0.0
0.49494949494949503 -1.0 0.0
0.5151515151515154 -1.0 0.0
0.5353535353535355 -1.0 0.0
0.5555555555555556 -1.0 0.0
0.5757575757575759 -1.0 0.0
0.595959595959596 -1.0 0.0
0.6161616161616164 -1.0 0.0
0.6363636363636365 -1.0 0.0
0.6565656565656568 -1.0 0.0
0.6767676767676769 -1.0 0.0
0.696969696969697 -1.0 0.0
0.7171717171717173 -1.0 0.0
0.7373737373737375 -1.0 0.0
0.7575757575757578 -1.0 0.0
0.7777777777777779 -1.0 0.0
0.7979797979797982 -1.0 0.0
0.8181818181818183 -1.0 0.0
0.8383838383838385 -1.0 0.0
0.8585858585858588 -1.0 0.0
0.8787878787878789 -1.0 0.0
0.8989898989898992 -1.0 0.0
0.9191919191919193 -1.0 0.0
0.9393939393939394 -1.0 0.0
0.9595959595959598 -1.0 0.0
0.9797979797979799 -1.0 0.0
1.0 -1.0 0.0
-1.0 -0.9797979797979798 0.0
-0.9797979797979798 -0.9797979797979798 0.0
-0.9595959595959596 -0.9797979797979798 0.0
-0.9393939393939394 -0.9797979797979798 0.0
-0.9191919191919192 -0.9797979797979798 0.0
-0.898989898989899 -0.9797979797979798 0.0
-0.8787878787878788 -0.9797979797979798 0.0
-0.8585858585858586 -0.9797979797979798 0.0
-0.8383838383838383 -0.9797979797979798 0.0
-0.8181818181818181 -0.9797979797979798 0.0
-0.797979797979798 -0.9797979797979798 0.0
-0.7777777777777778 -0.9797979797979798 0.0
-0.7575757575757576 -0.9797979797979798 0.0
-0.7373737373737373 -0.9797979797979798 0.0
-0.7171717171717171 -0.9797979797979798 0.0
-0.696969696969697 -0.9797979797979798 0.0
-0.6767676767676767 -0.9797979797979798 0.0
-0.6565656565656566 -0.9797979797979798 0.0
-0.6363636363636364 -0.9797979797979798 0.0
-0.6161616161616161 -0.9797979797979798 0.0
-0.5959595959595959 -0.9797979797979798 0.0
-0.5757575757575757 -0.9797979797979798 0.0
-0.5555555555555556 -0.9797979797979798 0.0
-0.5353535353535352 -0.9797979797979798 0.0
-0.5151515151515151 -0.9797979797979798 0.0
-0.4949494949494949 -0.9797979797979798 0.0
-0.4747474747474747 -0.9797979797979798 0.0
-0.4545454545454545 -0.9797979797979798 0.0
-0.43434343434343425 -0.9797979797979798 0.0
-0.41414141414141414 -0.9797979797979798 0.0
-0.3939393939393939 -0.9797979797979798 0.0
-0.3737373737373737 -0.9797979797979798 0.0
-0.3535353535353535 -0.9797979797979798 0.0
-0.33333333333333326 -0.9797979797979798 0.0
-0.31313131313131304 -0.9797979797979798 0.0
-0.2929292929292928 -0.9797979797979798 0.0
-0.2727272727272727 -0.9797979797979798 0.0
-0.2525252525252525 -0.9797979797979798 0.0
-0.23232323232323226 -0.9797979797979798 0.0
-0.21212121212121204 -0.9797979797979798 0.0
-0.19191919191919182 -0.9797979797979798 0.0
-0.1717171717171716 -0.9797979797979798 0.0
-0.1515151515151515 -0.9797979797979798 0.0
-0.13131313131313127 -0.9797979797979798 0.0
-0.11111111111111105 -0.9797979797979798 0.0
-0.09090909090909083 -0.9797979797979798 0.0
-0.07070707070707061 -0.9797979797979798 0.0
-0.050505050505050386 -0.9797979797979798 0.0
-0.030303030303030276 -0.9797979797979798 0.0
-0.010101010101010055 -0.9797979797979798 0.0
0.010101010101010166 -0.9797979797979798 0.0
0.030303030303030498 -0.9797979797979798 0.0
0.05050505050505061 -0.9797979797979798 0.0
0.07070707070707072 -0.9797979797979798 0.0
0.09090909090909105 -0.9797979797979798 0.0
0.11111111111111116 -0.9797979797979798 0.0
0.1313131313131315 -0.9797979797979798 0.0
0.1515151515151516 -0.9797979797979798 0.0
0.1717171717171717 -0.9797979797979798 0.0
0.19191919191919204 -0.9797979797979798 0.0
0.21212121212121215 -0.9797979797979798 0.0
0.2323232323232325 -0.9797979797979798 0.0
0.2525252525252526 -0.9797979797979798 0.0
0.27272727272727293 -0.9797979797979798 0.0
0.29292929292929304 -0.9797979797979798 0.0
0.31313131313131315 -0.9797979797979798 0.0
0.3333333333333335 -0.9797979797979798 0.0
0.3535353535353536 -0.9797979797979798 0.0
0.3737373737373739 -0.9797979797979798 0.0
0.39393939393939403 -0.9797979797979798 0.0
0.41414141414141437 -0.9797979797979798 0.0
0.4343434343434345 -0.9797979797979798 0.0
0.4545454545454546 -0.9797979797979798 0.0
0.4747474747474749 -0.9797979797979798 0.0
0.49494949494949503 -0.9797979797979798 0.0
0.5151515151515154 -0.9797979797979798 0.0
0.5353535353535355 -0.9797979797979798 0.0
0.5555555555555556 -0.9797979797979798 0.0
0.5757575757575759 -0.9797979797979798 0.0
0.595959595959596 -0.9797979797979798 0.0
0.6161616161616164 -0.9797979797979798 0.0
0.6363636363636365 -0.9797979797979798 0.0
0.6565656565656568 -0.9797979797979798 0.0
0.6767676767676769 -0.9797979797979798 0.0
0.696969696969697 -0.9797979797979798 0.0
0.7171717171717173 -0.9797979797979798 0.0
0.7373737373737375 -0.9797979797979798 0.0
0.7575757575757578 -0.9797979797979798 0.0
0.7777777777777779 -0.9797979797979798 0.0
0.7979797979797982 -0.9797979797979798 0.0
0.8181818181818183 -0.9797979797979798 0.0
0.8383838383838385 -0.9797979797979798 0.0
0.8585858585858588 -0.9797979797979798 0.0
0.8787878787878789 -0.9797979797979798 0.0
0.8989898989898992 -0.9797979797979798 0.0
0.9191919191919193 -0.9797979797979798 0.0
0.9393939393939394 -0.9797979797979798 0.0
0.9595959595959598 -0.9797979797979798 0.0
0.9797979797979799 -0.9797979797979798 0.0
1.0 -0.9797979797979798 0.0
-1.0 -0.9595959595959596 0.0
-0.9797979797979798 -0.9595959595959596 0.0
-0.9595959595959596 -0.9595959595959596 0.0
-0.9393939393939394 -0.9595959595959596 0.0
-0.9191919191919192 -0.9595959595959596 0.0
-0.898989898989899 -0.9595959595959596 0.0
-0.8787878787878788 -0.9595959595959596 0.0
-0.8585858585858586 -0.9595959595959596 0.0
-0.8383838383838383 -0.9595959595959596 0.0
-0.8181818181818181 -0.9595959595959596 0.0
-0.797979797979798 -0.9595959595959596 0.0
-0.7777777777777778 -0.9595959595959596 0.0
-0.7575757575757576 -0.9595959595959596 0.0
-0.7373737373737373 -0.9595959595959596 0.0
-0.7171717171717171 -0.9595959595959596 0.0
-0.696969696969697 -0.9595959595959596 0.0
-0.6767676767676767 -0.9595959595959596 0.0
-0.6565656565656566 -0.9595959595959596 0.0
-0.6363636363636364 -0.9595959595959596 0.0
-0.6161616161616161 -0.9595959595959596 0.0
-0.5959595959595959 -0.9595959595959596 0.0
-0.5757575757575757 -0.9595959595959596 0.0
-0.5555555555555556 -0.9595959595959596 0.0
-0.5353535353535352 -0.9595959595959596 0.0
-0.5151515151515151 -0.9595959595959596 0.0
-0.4949494949494949 -0.9595959595959596 0.0
-0.4747474747474747 -0.9595959595959596 0.0
-0.4545454545454545 -0.9595959595959596 0.0
-0.43434343434343425 -0.9595959595959596 0.0
-0.41414141414141414 -0.9595959595959596 0.0
-0.3939393939393939 -0.9595959595959596 0.0
-0.3737373737373737 -0.9595959595959596 0.0
-0.3535353535353535 -0.9595959595959596 0.0
-0.33333333333333326 -0.9595959595959596 0.0
-0.31313131313131304 -0.9595959595959596 0.0
-0.2929292929292928 -0.9595959595959596 0.0
-0.2727272727272727 -0.9595959595959596 0.0
-0.2525252525252525 -0.9595959595959596 0.0
-0.23232323232323226 -0.9595959595959596 0.0
-0.21212121212121204 -0.9595959595959596 0.0
-0.19191919191919182 -0.9595959595959596 0.0
-0.1717171717171716 -0.9595959595959596 0.0
-0.1515151515151515 -0.9595959595959596 0.0
-0.13131313131313127 -0.9595959595959596 0.0
-0.11111111111111105 -0.9595959595959596 0.0
-0.09090909090909083 -0.9595959595959596 0.0
-0.07070707070707061 -0.9595959595959596 0.0
-0.050505050505050386 -0.9595959595959596 0.0
-0.030303030303030276 -0.9595959595959596 0.0
-0.010101010101010055 -0.9595959595959596 0.0
0.010101010101010166 -0.9595959595959596 0.0
0.030303030303030498 -0.9595959595959596 0.0
0.05050505050505061 -0.9595959595959596 0.0
0.07070707070707072 -0.9595959595959596 0.0
0.09090909090909105 -0.9595959595959596 0.0
0.11111111111111116 -0.9595959595959596 0.0
0.1313131313131315 -0.9595959595959596 0.0
0.1515151515151516 -0.9595959595959596 0.0
0.1717171717171717 -0.9595959595959596 0.0
0.19191919191919204 -0.9595959595959596 0.0
0.21212121212121215 -0.9595959595959596 0.0
[...]
POINT_DATA 10000
SCALARS u float 1
LOOKUP_TABLE default
0.7320989966392517
0.7843130230903625
0.8219940662384033
0.84481281042099
0.8529318571090698
0.846897304058075
0.8275179266929626
0.7957343459129333
0.752518355846405
0.6987978219985962
0.6354192495346069
0.5631550550460815
0.48272937536239624
0.39488035440444946
0.3004330098628998
0.2003709077835083
0.09591328352689743
-0.011440493166446686
-0.11988881975412369
-0.22735658288002014
-0.33157384395599365
-0.43021127581596375
-0.5210375189781189
-0.6020975708961487
-0.6718425154685974
-0.7292038202285767
-0.773598849773407
-0.8048714995384216
-0.8231866955757141
-0.8289144039154053
-0.8225146532058716
-0.8044448494911194
-0.7750923037528992
-0.734754204750061
-0.6836515069007874
-0.6219910979270935
-0.5500587224960327
-0.46833065152168274
-0.3775922954082489
-0.27900442481040955
-0.17413780093193054
-0.06493747979402542
0.04635723680257797
0.15734580159187317
0.2656121253967285
0.36886799335479736
0.46507132053375244
0.5525035858154297
0.629793643951416
0.6959021687507629
0.7500743269920349
0.7917881608009338
0.8207000494003296
0.8366115689277649
0.8394479155540466
0.82924884557724
0.8061761260032654
0.7705316543579102
0.7227838039398193
0.6635946035385132
0.5938513278961182
0.5146847367286682
0.427449107170105
0.3336839973926544
0.23503011465072632
0.1331406831741333
0.029602117836475372
-0.07411108165979385
-0.17663690447807312
-0.27669963240623474
-0.3730601966381073
-0.4644702970981598
-0.5496413707733154
-0.6272376179695129
-0.6958906054496765
-0.7542388439178467
-0.8009827733039856
-0.8349551558494568
-0.8551875352859497
-0.8609757423400879
-0.8519330620765686
-0.8280373215675354
-0.7896496653556824
-0.7375118732452393
-0.6727339029312134
-0.5967376828193665
-0.5111950039863586
-0.4179352819919586
-0.3188580572605133
-0.21583834290504456
-0.1106499657034874
-0.004911698400974274
0.09994343668222427
0.20268452167510986
0.30226364731788635
0.3978082239627838
0.48859870433807373
0.5740473866462708
0.6536856293678284
0.7271500825881958
0.7832676768302917
0.8374539613723755
0.8764054775238037
0.8999891877174377
0.9084965586662292
0.9025309681892395
0.882881760597229
0.850411593914032
0.8059625029563904
0.7502937316894531
0.684065043926239
0.6078608632087708
0.5222489833831787
0.4278774559497833
0.3255908787250519
0.2165355682373047
0.10225259512662888
-0.015289045870304108
-0.1337384283542633
-0.250464528799057
-0.3627507984638214
-0.46799591183662415
-0.5639200806617737
-0.6487112641334534
-0.7210916876792908
-0.780318021774292
-0.8261042237281799
-0.8585106134414673
-0.8778116106987
-0.8843815922737122
-0.8785894513130188
-0.8607273101806641
-0.8309770822525024
-0.7894086837768555
-0.7360333800315857
-0.670884370803833
-0.594150960445404
-0.5063077211380005
-0.40824878215789795
-0.3013558089733124
-0.18751594424247742
-0.06904863566160202
0.05142880231142044
0.17117688059806824
0.28752002120018005
0.39801105856895447
0.5005407929420471
0.593390941619873
0.6752301454544067
0.7450693249702454
0.8021998405456543
0.8461352586746216
0.8765631318092346
0.8933131098747253
0.896338939666748
0.8857154250144958
0.8616350293159485
0.824413001537323
0.7745038866996765
0.7125211954116821
0.639266312122345
0.5557579398155212
0.4632522165775299
0.3632325232028961
0.25736963748931885
0.14745107293128967
0.03529363125562668
-0.07733110338449478
-0.18874329328536987
-0.29736262559890747
-0.4016878008842468
-0.500267505645752
-0.5916754603385925
-0.6744987964630127
-0.7473515868186951
-0.8089060187339783
-0.8579335808753967
-0.8933520913124084
-0.9142763018608093
-0.9200664162635803
-0.9103601574897766
-0.8851163983345032
-0.8446338176727295
-0.7895702719688416
-0.720946192741394
-0.6401224732398987
-0.5487648844718933
-0.44877520203590393
-0.3422043025493622
-0.23116245865821838
-0.11771462112665176
-0.003804899752140045
0.10881096869707108
0.218601793050766
0.3242739737033844
0.4247736632823944
0.5192636251449585
0.6071109175682068
0.6878514885902405
0.7611767649650574
0.8202675580978394
0.8756594061851501
0.9155667424201965
0.9399799704551697
0.9492320418357849
0.9438899755477905
0.9246494770050049
0.8922340273857117
0.8473188281059265
0.7904848456382751
0.7222119569778442
0.6429253816604614
0.5530840158462524
0.453305721282959
0.3445204198360443
0.2280939817428589
0.1059243306517601
-0.01956964284181595
-0.14555442333221436
-0.2689877450466156
-0.38687995076179504
-0.4965468943119049
-0.5958018898963928
-0.6830531358718872
-0.757303774356842
-0.8180715441703796
-0.8652681708335876
-0.8990592360496521
-0.9197266697883606
-0.9275631308555603
-0.9227873086929321
-0.9054951667785645
-0.8756555914878845
-0.8331357836723328
-0.7777770757675171
-0.7095193266868591
-0.6285350918769836
-0.5353904366493225
-0.43116480112075806
-0.3175036609172821
-0.19659921526908875
-0.07107669860124588
0.0561845526099205
0.1822541356086731
0.30434006452560425
0.41994917392730713
0.526966392993927
0.6236944794654846
0.7088245153427124
0.781385600566864
0.840688943862915
0.8862666487693787
0.9178311228752136
0.9352440237998962
0.93849778175354
0.9277050495147705
0.9030883312225342
0.8649778366088867
0.8138136863708496
0.7501600980758667
0.6747297644615173
0.5884191393852234
0.49234580993652344
0.3878776729106903
0.2766363322734833
0.1604590117931366
0.04133092612028122
-0.07870053499937057
-0.19761666655540466
-0.3134877383708954
-0.4244939088821411
-0.528937041759491
-0.6252325773239136
-0.7119000554084778
-0.7875744104385376
-0.8510144352912903
-0.9011269211769104
-0.9369880557060242
-0.9578662514686584
-0.963239848613739
-0.9528233408927917
-0.9265820384025574
-0.8847637176513672
-0.8279245495796204
-0.7569494843482971
-0.6730719804763794
-0.5778570771217346
-0.4731753170490265
-0.36113205552101135
-0.24398306012153625
-0.1240229383111
-0.0034844502806663513
0.11556222289800644
0.2312799096107483
0.3421081006526947
0.44678279757499695
0.5443275570869446
0.6340357065200806
0.7154337763786316
0.788246214389801
0.8426943421363831
0.8987821340560913
0.9395176768302917
0.9649257063865662
0.9752876162528992
0.9710561037063599
0.9527677893638611
0.9209671020507812
0.8761475086212158
0.8187171816825867
0.7490169405937195
0.6673711538314819
0.574207603931427
0.47020456194877625
0.3564516603946686
0.2345898449420929
0.1068628653883934
-0.02393481880426407
-0.15464439988136292
-0.2820112407207489
-0.4029832184314728
-0.5149626731872559
-0.6159562468528748
-0.7046099305152893
-0.7801454663276672
-0.8422442078590393
-0.8908984065055847
-0.9262676239013672
-0.9485551714897156
-0.9579090476036072
-0.9543638825416565
-0.9378138184547424
-0.9080290198326111
-0.8647169470787048
-0.807622492313385
-0.7366708517074585
-0.6521210670471191
-0.5547166466712952
-0.44577905535697937
-0.327227383852005
-0.20150116086006165
-0.07141292840242386
0.06004824489355087
0.18991854786872864
0.3154282867908478
0.43411704897880554
0.5439017415046692
0.6430884003639221
0.7303536534309387
0.8047055006027222
0.8654422163963318
0.912098228931427
0.9444083571434021
0.9622744917869568
0.9657360315322876
0.9549499154090881
0.9301730990409851
0.8917496204376221
0.8401082158088684
0.7757679224014282
0.6993600130081177
0.6116638779640198
0.5136558413505554
0.40656015276908875
0.2918895483016968
0.17145130038261414
0.047313936054706573
-0.07826919108629227
-0.20297250151634216
-0.3245048224925995
-0.44070127606391907
-0.5495813488960266
-0.6493781208992004
-0.738545298576355
-0.8157528042793274
-0.8798857927322388
-0.9300287365913391
-0.9654638171195984
-0.9856567978858948
-0.9902511239051819
-0.9790696501731873
-0.952119767665863
-0.9096170663833618
-0.8520213961601257
-0.7800705432891846
-0.6948248147964478
-0.5976883769035339
-0.4904111921787262
-0.3750559687614441
-0.25392577052116394
-0.12945732474327087
-0.00410742312669754
0.11977814882993698
0.2400706708431244
0.3549361824989319
0.46288108825683594
0.5627641677856445
0.6537756323814392
0.7354022264480591
0.8073756098747253
0.8505488038063049
0.9070154428482056
0.9485589861869812
0.9751467704772949
0.9869294762611389
0.9841778874397278
0.9672229886054993
0.9364075660705566
0.8920444846153259
0.8344047665596008
0.7637438178062439
0.6803786158561707
0.5848096609115601
0.47787681221961975
0.3609142601490021
0.2358548939228058
0.10523172467947006
-0.027934826910495758
-0.16037163138389587
-0.28884655237197876
-0.4104507267475128
-0.5228019952774048
-0.6241399645805359
-0.7133031487464905
-0.789643406867981
-0.8528850674629211
-0.9029825329780579
-0.9399942755699158
-0.9639726281166077
-0.9748833775520325
-0.9725685715675354
-0.9567345976829529
-0.927000105381012
-0.8829782605171204
-0.8244034647941589
-0.7512876391410828
-0.6640695929527283
-0.563737154006958
-0.45187827944755554
-0.33063361048698425
-0.20258793234825134
-0.07059071213006973
0.06242825835943222
0.19361647963523865
0.3203220069408417
0.4401724636554718
0.5511162877082825
0.6514385938644409
0.7397621870040894
0.8150375485420227
0.8765151500701904
0.9237168431282043
0.9563965201377869
0.9744963049888611
0.9781108498573303
0.9674457311630249
0.9427972435951233
0.9045261740684509
0.853053629398346
0.7888621687889099
0.7125167846679688
0.6247014403343201
0.5262663960456848
0.4182964265346527
0.30217069387435913
0.17960932850837708
0.05267410725355148
-0.07627473026514053
-0.20468631386756897
-0.32996419072151184
-0.44961097836494446
-0.5613517165184021
-0.6632216572761536
-0.7535926699638367
-0.8311702013015747
-0.8949716091156006
-0.9442784190177917
-0.9785966277122498
-0.9976111054420471
-1.0011546611785889
-0.989183247089386
-0.9617757201194763
-0.9191432595252991
-0.8616700768470764
-0.7899572253227234
-0.7048839926719666
-0.6076589226722717
-0.4998522102832794
-0.3833959996700287
-0.2605399787425995
-0.13376688957214355
-0.005662612617015839
0.12121760100126266
0.24449560046195984
0.3620801270008087
0.47224244475364685
0.5736508369445801
0.6653624773025513
0.7467854022979736
0.8176229596138
0.8441828489303589
0.9008086323738098
0.9431571364402771
0.9710566997528076
0.9844592213630676
0.9834060072898865
0.9679937362670898
0.9383561611175537
0.894646167755127
0.8370465040206909
0.7658132314682007
0.6813623905181885
0.5843853950500488
0.4759901463985443
0.3578090965747833
0.23204255104064941
0.10139542073011398
-0.03108356148004532
-0.16224956512451172
-0.2891193926334381
-0.4090905487537384
-0.5200729966163635
-0.6205258965492249
-0.7094114422798157
-0.786095380783081
-0.8502293229103088
-0.9016284942626953
-0.9401693940162659
-0.9657022356987
-0.9779927134513855
-0.9766989350318909
-0.9613859057426453
-0.9315869212150574
-0.8869131803512573
-0.8271925449371338
-0.7526230216026306
-0.663899838924408
-0.5622848868370056
-0.4495941698551178
-0.3280971944332123
-0.20037305355072021
-0.06914601475000381
0.06285508722066879
0.1929962933063507
0.3188036382198334
0.4380092918872833
0.5485852956771851
0.6487718820571899
0.7371141314506531
0.8124740719795227
0.8740377426147461
0.9212953448295593
0.9540048837661743
0.9721428751945496
0.9758521914482117
0.9653921723365784
0.9410974383354187
0.9033523201942444
0.8525776863098145
0.7892357707023621
0.7138456702232361
0.6270208954811096
0.5295193791389465
0.4223114252090454
0.3066490590572357
0.18413656949996948
0.056761570274829865
-0.07311458140611649
-0.20284119248390198
-0.3296246826648712
-0.45070913434028625
-0.5635613799095154
-0.666013240814209
-0.7563354969024658
-0.8332468867301941
-0.8958747982978821
-0.9436816573143005
-0.9763888716697693
-0.9938998818397522
-0.9962396025657654
-0.9835122227668762
-0.9558882117271423
-0.9136064052581787
-0.8570050597190857
-0.7865779995918274
-0.7030422687530518
-0.6074044704437256
-0.50102299451828
-0.385637491941452
-0.2633592188358307
-0.13660579919815063
-0.007990904152393341
0.11981970816850662
0.244268000125885
0.36304622888565063
0.4742032289505005
0.5762028098106384
0.6679374575614929
0.7486947178840637
0.8181041479110718
0.8242186307907104
0.8807883858680725
0.9238734245300293
0.9530975222587585
0.9681674242019653
0.9688618779182434
0.9550339579582214
0.9266172051429749
0.8836421370506287
0.8262740969657898
0.7548671364784241
0.6700500249862671
0.5728232264518738
0.46463677287101746
0.34743532538414
0.22360387444496155
0.0958569273352623
-0.03294936567544937
-0.16002336144447327
-0.2828100621700287
-0.39912107586860657
-0.5071834325790405
-0.6056336760520935
-0.6934714913368225
-0.7699742913246155
-0.8346239328384399
-0.8870105147361755
-0.9267684817314148
-0.9535143971443176
-0.9668102860450745
-0.9661646485328674
-0.9510613083839417
-0.921042263507843
-0.8758253455162048
-0.8154394626617432
-0.7403581738471985
-0.6515713930130005
-0.5505895018577576
-0.4393672049045563
-0.3201581537723541
-0.1953795850276947
-0.06748916953802109
0.0610838308930397
0.1879812479019165
0.3109281361103058
0.4277629256248474
0.536474347114563
0.6352556347846985
0.7225643992424011
0.7971712946891785
0.8581833839416504
0.9050422310829163
0.9374894499778748
0.9555139541625977
0.9592918753623962
0.9491220116615295
0.9253784418106079
0.8884737491607666
0.8388434052467346
0.7769460082054138
0.7032811045646667
0.6184256672859192
0.523080587387085
0.41813692450523376
0.30474889278411865
0.18440240621566772
0.058971308171749115
-0.06927414983510971
-0.19771498441696167
-0.3235074579715729
-0.4437693655490875
-0.5557962656021118
-0.6572490334510803
-0.7462858557701111
-0.8215965032577515
-0.8823714852333069
-0.9282068610191345
-0.9590035080909729
-0.9748556017875671
-0.9759688973426819
-0.9625986218452454
-0.9350187182426453
-0.8935210108757019
-0.8384382128715515
-0.7701966166496277
-0.6893826723098755
-0.5968226790428162
-0.49365970492362976
-0.3814062774181366
-0.26196327805519104
-0.13758957386016846
-0.010814227163791656
0.11569719761610031
0.23930543661117554
0.3575534224510193
0.4683016836643219
0.5698122382164001
0.660787045955658
0.7403543591499329
0.8080262541770935
0.7914806604385376
0.8476923108100891
0.8913076519966125
0.9217011332511902
0.9383045434951782
0.9406231045722961
0.9282713532447815
0.9010127186775208
0.8588141202926636
0.8019012808799744
0.7308300137519836
0.6465509533882141
0.5504518151283264
0.4443568289279938
0.3304632902145386
0.21121889352798462
0.08916091173887253
-0.033243872225284576
-0.1537218987941742
-0.2702622711658478
-0.38113507628440857
-0.48487159609794617
-0.580237865447998
-0.6661960482597351
-0.7418621778488159
-0.8064689040184021
-0.8593286871910095
-0.89979088306427
-0.9272258281707764
-0.9410070776939392
-0.9405400156974792
-0.9253091216087341
-0.8949684500694275
-0.8494536280632019
-0.789094090461731
-0.7146898508071899
-0.6275161504745483
-0.5292503833770752
-0.4218465983867645
-0.3073945641517639
-0.1880137324333191
-0.06580529361963272
0.0571511834859848
0.1787838637828827
0.29701870679855347
0.4097984731197357
0.5151383876800537
0.6112002730369568
0.6963755488395691
0.7693555951118469
0.8291671872138977
0.8751899003982544
0.9071217775344849
0.9249314665794373
0.9287976622581482
0.9190379977226257
0.8960546851158142
0.860291063785553
0.8122102618217468
0.7522904872894287
0.6810413002967834
0.5990379452705383
0.5069618821144104
0.4056668281555176
0.29623639583587646
0.18005681037902832
0.05886659771203995
-0.0652136579155922
-0.1897125542163849
-0.31189051270484924
-0.4289027154445648
-0.5380059480667114
-0.6367723941802979
-0.7232584357261658
-0.796088457107544
-0.854446291923523
-0.8979942202568054
-0.9267444610595703
-0.9409381747245789
-0.9409307837486267
-0.927117645740509
-0.8998834490776062
-0.8595943450927734
-0.8066117167472839
-0.7413346171379089
-0.6642648577690125
-0.5760865807533264
-0.47774311900138855
-0.37051066756248474
-0.25603994727134705
-0.13635224103927612
-0.013786204159259796
0.1091100201010704
0.22972634434700012
0.3455483615398407
0.4543054401874542
0.5540832281112671
0.6433855891227722
0.7211492657661438
0.786719024181366
0.7469320893287659
0.8023249506950378
0.8460732102394104
0.8772774338722229
0.8950850963592529
0.8987374901771545
0.8876383900642395
0.8614316582679749
0.8200882077217102
0.7639861702919006
0.693974494934082
0.6113958358764648
0.5180490016937256
0.4160853326320648
0.3078484535217285
0.19568729400634766
0.08179774135351181
-0.031877823173999786
-0.14367231726646423
-0.25214824080467224
-0.35603028535842896
-0.45412901043891907
-0.5452979803085327
-0.6284176707267761
-0.7023984789848328
-0.7661893963813782
-0.8187900185585022
-0.8592564463615417
-0.8867130279541016
-0.9003816246986389
-0.8996223211288452
-0.8840059638023376
-0.8534014821052551
-0.8080583214759827
-0.7486655712127686
-0.6763512492179871
-0.5926045775413513
-0.4991462528705597
-0.3977886140346527
-0.29032713174819946
-0.1785038411617279
-0.06402932852506638
0.05136564373970032
0.16588112711906433
0.2776346802711487
0.38468778133392334
0.4851122200489044
0.5770772099494934
0.6589482426643372
0.7293636202812195
0.7872859835624695
0.8320195078849792
0.8631944060325623
0.8807235360145569
0.8847484588623047
0.8755712509155273
0.8536010384559631
0.8193077445030212
0.7731909155845642
0.7157699465751648
0.64759761095047
0.5692787766456604
0.4815156161785126
0.3851548731327057
0.28124332427978516
0.17108121514320374
0.05627074092626572
-0.06126011162996292
-0.17926636338233948
-0.2952429950237274
-0.40654173493385315
-0.5105396509170532
-0.6048373579978943
-0.6874441504478455
-0.7569026350975037
-0.8123313784599304
-0.8533673882484436
-0.8800567388534546
-0.8927156329154968
-0.891808032989502
-0.8778421878814697
-0.8513126969337463
-0.8126725554466248
-0.7623390555381775
-0.7007248997688293
-0.628292441368103
-0.5456258654594421
-0.45350345969200134
-0.3529784083366394
-0.24543222784996033
-0.13259640336036682
-0.016535617411136627
0.10042915493249893
0.2158322036266327
0.32720819115638733
0.43223756551742554
0.5288766026496887
0.6154413819313049
0.6906631588935852
0.7536863088607788
0.691625714302063
0.7455329298973083
0.7887864708900452
0.8202183842658997
0.8387072682380676
0.8432607054710388
0.8331226706504822
0.8078849911689758
0.7676058411598206
0.7128965258598328
0.6449553370475769
0.5655286908149719
0.4767732322216034
0.38105157017707825
0.28069862723350525
0.17781195044517517
0.0741308256983757
-0.028977520763874054
-0.13044998049736023
-0.22938844561576843
-0.3249284625053406
-0.41612353920936584
-0.5018979907035828
-0.5810459852218628
-0.6522677540779114
-0.714229941368103
-0.7656251788139343
-0.8052266240119934
-0.8319492936134338
-0.8449044823646545
-0.8434798121452332
-0.8274143934249878
-0.7968644499778748
-0.7524464726448059
-0.6952067017555237
-0.6265398263931274
-0.5480350852012634
-0.46132299304008484
-0.36795273423194885
-0.2693580090999603
-0.1668865978717804
-0.061879001557826996
0.04424592852592468
0.14994066953659058
0.2535157799720764
0.3531795144081116
0.4471074342727661
0.5335341095924377
0.6108536720275879
0.6776914596557617
0.7329652905464172
0.775907039642334
0.8060588836669922
0.8232438564300537
0.8275267481803894
0.8191561102867126
0.7985171675682068
0.7660883665084839
0.7224067449569702
0.6680487394332886
0.6036333441734314
0.5298291444778442
0.4473896026611328
0.35718342661857605
0.26024070382118225
0.1577894389629364
0.05128910392522812
-0.057543568313121796
-0.16674387454986572
-0.27412909269332886
-0.37737101316452026
-0.4741118848323822
-0.5621180534362793
-0.6394438743591309
-0.7045803070068359
-0.7565403580665588
-0.7948617339134216
-0.819531261920929
-0.8308622241020203
-0.8293615579605103
-0.8156169652938843
-0.7902148962020874
-0.7536992430686951
-0.7065636515617371
-0.6492655873298645
-0.5822680592536926
-0.506098210811615
-0.42141106724739075
-0.3290608525276184
-0.2301643192768097
-0.12614023685455322
-0.018718309700489044
0.09009265154600143
0.1980794370174408
0.30293381214141846
0.40238532423973083
0.49432846903800964
0.5769356489181519
0.6487361788749695
0.7086594700813293
0.626671314239502
0.6781911849975586
0.7200809717178345
0.7509340643882751
0.7694029211997986
0.7743205428123474
0.7648425698280334
0.7405945658683777
0.7017989754676819
0.6493537425994873
0.5848096609115601
0.5102497935295105
0.4280562102794647
0.3406316936016083
0.2501339912414551