# vtk DataFile Version 3.0
2D PINN Solution
ASCII
DATASET STRUCTURED_GRID
DIMENSIONS 100 100 1
POINTS 10000 float
-1.0 -1.0 0.0
-0.9797979797979798 -1.0 0.0
-0.9595959595959596 -1.0 0.0
-0.9393939393939394 -1.0 0.0
-0.9191919191919192 -1.0 0.0
-0.898989898989899 -1.0 0.0
-0.8787878787878788 -1.0 0.0
-0.8585858585858586 -1.0 0.0
-0.8383838383838383 -1.0 0.0
-0.8181818181818181 -1.0 0.0
-0.797979797979798 -1.0 0.0
-0.7777777777777778 -1.0 0.0
-0.7575757575757576 -1.0 0.0
-0.7373737373737373 -1.0 0.0
-0.7171717171717171 -1.0 0.0
-0.696969696969697 -1.0 0.0
-0.6767676767676767 -1.0 0.0
-0.6565656565656566 -1.0 0.0
-0.6363636363636364 -1.0 0.0
-0.6161616161616161 -1.0 0.0
-0.5959595959595959 -1.0 0.0
-0.5757575757575757 -1.0 0.0
-0.5555555555555556 -1.0 0.0
-0.5353535353535352 -1.0 0.0
-0.5151515151515151 -1.0 0.0
-0.4949494949494949 -1.0 0.0
-0.4747474747474747 -1.0 0.0
-0.4545454545454545 -1.0 0.0
-0.43434343434343425 -1.0 0.0
-0.41414141414141414 -1.0 0.0
-0.3939393939393939 -1.0 0.0
-0.3737373737373737 -1.0 0.0
-0.3535353535353535 -1.0 0.0
-0.33333333333333326 -1.0 0.0
-0.31313131313131304 -1.0 0.0
-0.2929292929292928 -1.0 0.0
-0.2727272727272727 -1.0 0.0
-0.2525252525252525 -1.0 0.0
-0.23232323232323226 -1.0 0.0
-0.21212121212121204 -1.0 0.0
-0.19191919191919182 -1.0 0.0
-0.1717171717171716 -1.0 0.0
-0.1515151515151515 -1.0 0.0
-0.13131313131313127 -1.0 0.0
-0.11111111111111105 -1.0 0.0
-0.09090909090909083 -1.0 0.0
-0.07070707070707061 -1.0 0.0
-0.050505050505050386 -1.0 0.0
-0.030303030303030276 -1.0 0.0
-0.010101010101010055 -1.0 0.0
0.010101010101010166 -1.0 0.0
0.030303030303030498 -1.0 0.0
0.05050505050505061 -1.0 0.0
0.07070707070707072 -1.0 0.0
0.09090909090909105 -1.0 0.0
0.11111111111111116 -1.0 0.0
0.1313131313131315 -1.0 0.0
0.1515151515151516 -1.0 0.0
0.1717171717171717 -1.0 0.0
0.19191919191919204 -1.0 0.0
0.21212121212121215 -1.0 0.0
0.2323232323232325 -1.0 0.0
0.2525252525252526 -1.0 0.0
0.27272727272727293 -1.0 0.0
0.29292929292929304 -1.0 0.0
0.31313131313131315 -1.0 0.0
0.3333333333333335 -1.0 0.0
0.3535353535353536 -1.0 0.0
0.3737373737373739 -1.0 0.0
0.39393939393939403 -1.0 0.0
0.41414141414141437 -1.0 0.0
0.4343434343434345 -1.0 0.0
0.4545454545454546 -1.0 0.0
0.4747474747474749 -1.0 0.0
0.49494949494949503 -1.0 0.0
0.5151515151515154 -1.0 0.0
0.5353535353535355 -1.0 0.0
0.5555555555555556 -1.0 0.0
0.5757575757575759 -1.0 0.0
0.595959595959596 -1.0 0.0
0.6161616161616164 -1.0 0.0
0.6363636363636365 -1.0 0.0
0.6565656565656568 -1.0 0.0
0.6767676767676769 -1.0 0.0
0.696969696969697 -1.0 0.0
0.7171717171717173 -1.0 0.0
0.7373737373737375 -1.0 0.0
0.7575757575757578 -1.0 0.0
0.7777777777777779 -1.0 0.0
0.7979797979797982 -1.0 0.0
0.8181818181818183 -1.0 0.0
0.8383838383838385 -1.0 0.0
0.8585858585858588 -1.0 0.0
0.8787878787878789 -1.0 0.0
0.8989898989898992 -1.0 0.0
0.9191919191919193 -1.0 0.0
0.9393939393939394 -1.0 0.0
0.9595959595959598 -1.0 0.0
0.9797979797979799 -1.0 0.0
1.0 -1.0 0.0
-1.0 -0.9797979797979798 0.0
-0.9797979797979798 -0.9797979797979798 0.0
-0.9595959595959596 -0.9797979797979798 0.0
-0.9393939393939394 -0.9797979797979798 0.0
-0.9191919191919192 -0.9797979797979798 0.0
-0.898989898989899 -0.9797979797979798 0.0
-0.8787878787878788 -0.9797979797979798 0.0
-0.8585858585858586 -0.9797979797979798 0.0
-0.8383838383838383 -0.9797979797979798 0.0
-0.8181818181818181 -0.9797979797979798 0.0
-0.797979797979798 -0.9797979797979798 0.0
-0.7777777777777778 -0.9797979797979798 0.0
-0.7575757575757576 -0.9797979797979798 0.0
-0.7373737373737373 -0.9797979797979798 0.0
-0.7171717171717171 -0.9797979797979798 0.0
-0.696969696969697 -0.9797979797979798 0.0
-0.6767676767676767 -0.9797979797979798 0.0
-0.6565656565656566 -0.9797979797979798 0.0
-0.6363636363636364 -0.9797979797979798 0.0
-0.6161616161616161 -0.9797979797979798 0.0
-0.5959595959595959 -0.9797979797979798 0.0
-0.5757575757575757 -0.9797979797979798 0.0
-0.5555555555555556 -0.9797979797979798 0.0
-0.5353535353535352 -0.9797979797979798 0.0
-0.5151515151515151 -0.9797979797979798 0.0
-0.4949494949494949 -0.9797979797979798 0.0
-0.4747474747474747 -0.9797979797979798 0.0
-0.4545454545454545 -0.9797979797979798 0.0
-0.43434343434343425 -0.9797979797979798 0.0
-0.41414141414141414 -0.9797979797979798 0.0
-0.3939393939393939 -0.9797979797979798 0.0
-0.3737373737373737 -0.9797979797979798 0.0
-0.3535353535353535 -0.9797979797979798 0.0
-0.33333333333333326 -0.9797979797979798 0.0
-0.31313131313131304 -0.9797979797979798 0.0
-0.2929292929292928 -0.9797979797979798 0.0
-0.2727272727272727 -0.9797979797979798 0.0
-0.2525252525252525 -0.9797979797979798 0.0
-0.23232323232323226 -0.9797979797979798 0.0
-0.21212121212121204 -0.9797979797979798 0.0
-0.19191919191919182 -0.9797979797979798 0.0
-0.1717171717171716 -0.9797979797979798 0.0
-0.1515151515151515 -0.9797979797979798 0.0
-0.13131313131313127 -0.9797979797979798 0.0
-0.11111111111111105 -0.9797979797979798 0.0
-0.09090909090909083 -0.9797979797979798 0.0
-0.07070707070707061 -0.9797979797979798 0.0
-0.050505050505050386 -0.9797979797979798 0.0
-0.030303030303030276 -0.9797979797979798 0.0
-0.010101010101010055 -0.9797979797979798 0.0
0.010101010101010166 -0.9797979797979798 0.0
0.030303030303030498 -0.9797979797979798 0.0
0.05050505050505061 -0.9797979797979798 0.0
0.07070707070707072 -0.9797979797979798 0.0
0.09090909090909105 -0.9797979797979798 0.0
0.11111111111111116 -0.9797979797979798 0.0
0.1313131313131315 -0.9797979797979798 0.0
0.1515151515151516 -0.9797979797979798 0.0
0.1717171717171717 -0.9797979797979798 0.0
0.19191919191919204 -0.9797979797979798 0.0
0.21212121212121215 -0.9797979797979798 0.0
0.2323232323232325 -0.9797979797979798 0.0
0.2525252525252526 -0.9797979797979798 0.0
0.27272727272727293 -0.9797979797979798 0.0
0.29292929292929304 -0.9797979797979798 0.0
0.31313131313131315 -0.9797979797979798 0.0
0.3333333333333335 -0.9797979797979798 0.0
0.3535353535353536 -0.9797979797979798 0.0
0.3737373737373739 -0.9797979797979798 0.0
0.39393939393939403 -0.9797979797979798 0.0
0.41414141414141437 -0.9797979797979798 0.0
0.4343434343434345 -0.9797979797979798 0.0
0.4545454545454546 -0.9797979797979798 0.0
0.4747474747474749 -0.9797979797979798 0.0
0.49494949494949503 -0.9797979797979798 0.0
0.5151515151515154 -0.9797979797979798 0.0
0.5353535353535355 -0.9797979797979798 0.0
0.5555555555555556 -0.9797979797979798 0.0
0.5757575757575759 -0.9797979797979798 0.0
0.595959595959596 -0.9797979797979798 0.0
0.6161616161616164 -0.9797979797979798 0.0
0.6363636363636365 -0.9797979797979798 0.0
0.6565656565656568 -0.9797979797979798 0.0
0.6767676767676769 -0.9797979797979798 0.0
0.696969696969697 -0.9797979797979798 0.0
0.7171717171717173 -0.9797979797979798 0.0
0.7373737373737375 -0.9797979797979798 0.0
0.7575757575757578 -0.9797979797979798 0.0
0.7777777777777779 -0.9797979797979798 0.0
0.7979797979797982 -0.9797979797979798 0.0
0.8181818181818183 -0.9797979797979798 0.0
0.8383838383838385 -0.9797979797979798 0.0
0.8585858585858588 -0.9797979797979798 0.0
0.8787878787878789 -0.9797979797979798 0.0
0.8989898989898992 -0.9797979797979798 0.0
0.9191919191919193 -0.9797979797979798 0.0
0.9393939393939394 -0.9797979797979798 0.0
0.9595959595959598 -0.9797979797979798 0.0
0.9797979797979799 -0.9797979797979798 0.0
1.0 -0.9797979797979798 0.0
-1.0 -0.9595959595959596 0.0
-0.9797979797979798 -0.9595959595959596 0.0
-0.9595959595959596 -0.9595959595959596 0.0
-0.9393939393939394 -0.9595959595959596 0.0
-0.9191919191919192 -0.9595959595959596 0.0
-0.898989898989899 -0.9595959595959596 0.0
-0.8787878787878788 -0.9595959595959596 0.0
-0.8585858585858586 -0.9595959595959596 0.0
-0.8383838383838383 -0.9595959595959596 0.0
-0.8181818181818181 -0.9595959595959596 0.0
-0.797979797979798 -0.9595959595959596 0.0
-0.7777777777777778 -0.9595959595959596 0.0
-0.7575757575757576 -0.9595959595959596 0.0
-0.7373737373737373 -0.9595959595959596 0.0
-0.7171717171717171 -0.9595959595959596 0.0
-0.696969696969697 -0.9595959595959596 0.0
-0.6767676767676767 -0.9595959595959596 0.0
-0.6565656565656566 -0.9595959595959596 0.0
-0.6363636363636364 -0.9595959595959596 0.0
-0.6161616161616161 -0.9595959595959596 0.0
-0.5959595959595959 -0.9595959595959596 0.0
-0.5757575757575757 -0.9595959595959596 0.0
-0.5555555555555556 -0.9595959595959596 0.0
-0.5353535353535352 -0.9595959595959596 0.0
-0.5151515151515151 -0.9595959595959596 0.0
-0.4949494949494949 -0.9595959595959596 0.0
-0.4747474747474747 -0.9595959595959596 0.0
-0.4545454545454545 -0.9595959595959596 0.0
-0.43434343434343425 -0.9595959595959596 0.0
-0.41414141414141414 -0.9595959595959596 0.0
-0.3939393939393939 -0.9595959595959596 0.0
-0.3737373737373737 -0.9595959595959596 0.0
-0.3535353535353535 -0.9595959595959596 0.0
-0.33333333333333326 -0.9595959595959596 0.0
-0.31313131313131304 -0.9595959595959596 0.0
-0.2929292929292928 -0.9595959595959596 0.0
-0.2727272727272727 -0.9595959595959596 0.0
-0.2525252525252525 -0.9595959595959596 0.0
-0.23232323232323226 -0.9595959595959596 0.0
-0.21212121212121204 -0.9595959595959596 0.0
-0.19191919191919182 -0.9595959595959596 0.0
-0.1717171717171716 -0.9595959595959596 0.0
-0.1515151515151515 -0.9595959595959596 0.0
-0.13131313131313127 -0.9595959595959596 0.0
-0.11111111111111105 -0.9595959595959596 0.0
-0.09090909090909083 -0.9595959595959596 0.0
-0.07070707070707061 -0.9595959595959596 0.0
-0.050505050505050386 -0.9595959595959596 0.0
-0.030303030303030276 -0.9595959595959596 0.0
-0.010101010101010055 -0.9595959595959596 0.0
0.010101010101010166 -0.9595959595959596 0.0
0.030303030303030498 -0.9595959595959596 0.0
0.05050505050505061 -0.9595959595959596 0.0
0.07070707070707072 -0.9595959595959596 0.0
0.09090909090909105 -0.9595959595959596 0.0
0.11111111111111116 -0.9595959595959596 0.0
0.1313131313131315 -0.9595959595959596 0.0
0.1515151515151516 -0.9595959595959596 0.0
0.1717171717171717 -0.9595959595959596 0.0
0.19191919191919204 -0.9595959595959596 0.0
0.21212121212121215 -0.9595959595959596 0.0
[...]
POINT_DATA 10000
SCALARS u float 1
LOOKUP_TABLE default
0.8157778382301331
0.8466227650642395
0.867935836315155
0.8789127469062805
0.8787351250648499
0.8665755987167358
0.8416147828102112
0.8030807971954346
0.7503150105476379
0.6828764081001282
0.6006739735603333
0.504128098487854
0.39432206749916077
0.27311962842941284
0.14319783449172974
0.007940031588077545
-0.1287887692451477
-0.2629815340042114
-0.3908438980579376
-0.5091106295585632
-0.6152393817901611
-0.7074686884880066
-0.784771203994751
-0.846716582775116
-0.8933101892471313
-0.9248350858688354
-0.9417219758033752
-0.9444509148597717
-0.933494508266449
-0.9092906713485718
-0.8722445964813232
-0.8227565884590149
-0.7612599730491638
-0.6882871985435486
-0.6045207977294922
-0.5108645558357239
-0.40848037600517273
-0.29881909489631653
-0.1836162805557251
-0.06484643369913101
0.055340223014354706
0.1747123897075653
0.29105597734451294
0.40227192640304565
0.506449818611145
0.601930558681488
0.6873247027397156
0.7615181803703308
0.8236444592475891
0.873052179813385
0.9092541337013245
0.9318879842758179
0.9406811594963074
0.9354348182678223
0.9160184264183044
0.8823980689048767
0.8346758484840393
0.7731482982635498
0.6983740925788879
0.6112381815910339
0.5129960179328918
0.4052872955799103
0.29009923338890076
0.16968369483947754
0.04644738882780075
-0.07717869430780411
-0.19885864853858948
-0.31643205881118774
-0.4279663860797882
-0.5317689776420593
-0.6263792514801025
-0.7105482220649719
-0.7832173705101013
-0.8434961438179016
-0.8906500339508057
-0.9240865111351013
-0.9433477520942688
-0.9481114745140076
-0.9381963610649109
-0.913569986820221
-0.8743855953216553
-0.820993959903717
-0.7539927959442139
-0.6742546558380127
-0.5829540491104126
-0.48157361149787903
-0.3718966543674469
-0.2559552490711212
-0.13596731424331665
-0.014237500727176666
0.10694291442632675
0.22540375590324402
0.33917826414108276
0.4465756416320801
0.5462102890014648
0.6370231509208679
0.7182580828666687
0.7894496321678162
0.8503717184066772
0.901003360748291
0.8498433232307434
0.884576141834259
0.9093217849731445
0.9231026768684387
0.9249102473258972
0.9137208461761475
0.8885159492492676
0.8483408093452454
0.7923991084098816
0.7201859354972839
0.6316729187965393
0.5274918079376221
0.40911903977394104
0.27896541357040405
0.14034640789031982
-0.0027267709374427795
-0.14589226245880127
-0.2848566472530365
-0.4157975912094116
-0.5356376767158508
-0.6421701312065125
-0.7340260744094849
-0.8105464577674866
-0.8716037273406982
-0.91741544008255
-0.948390543460846
-0.9650067687034607
-0.9677333235740662
-0.9569858908653259
-0.9331148266792297
-0.8964123129844666
-0.8471514582633972
-0.7856320142745972
-0.7122418284416199
-0.6275359392166138
-0.532301127910614
-0.42762091755867004
-0.314919114112854
-0.19596102833747864
-0.07281740754842758
0.052213944494724274
0.17671576142311096
0.2982834577560425
0.4146392345428467
0.5237284898757935
0.6237810254096985
0.7133333086967468
0.7912167906761169
0.8565258979797363
0.9085699915885925
0.946822464466095
0.9708732962608337
0.9803993105888367
0.9751473069190979
0.9549423456192017
0.9197250604629517
0.869598925113678
0.8049057126045227
0.726294219493866
0.6347865462303162
0.5318065881729126
0.41917723417282104
0.2990625500679016
0.1738685667514801
0.04611947387456894
-0.0816778913140297
-0.2071450650691986
-0.3281124532222748
-0.44266316294670105
-0.5491341352462769
-0.6461067199707031
-0.7323765754699707
-0.8069267272949219
-0.8689002990722656
-0.9175841212272644
-0.9523904919624329
-0.9728487133979797
-0.9786010384559631
-0.9694059491157532
-0.9451557993888855
-0.9058994054794312
-0.851879358291626
-0.7835778594017029
-0.7017640471458435
-0.6075385808944702
-0.5023604035377502
-0.3880559206008911
-0.26678112149238586
-0.14095571637153625
-0.013154961168766022
0.11401555687189102
0.23806527256965637
0.35672858357429504
0.4680739939212799
0.5705515146255493
0.6630148887634277
0.7447047233581543
0.815212607383728
0.8744189143180847
0.9224372506141663
0.8718079924583435
0.9099652767181396
0.9376799464225769
0.9537895321846008
0.9570987224578857
0.9463992714881897
0.92050701379776
0.8783416152000427
0.8190569281578064
0.7422075867652893
0.6479658484458923
0.53732830286026
0.4122699797153473
0.275786429643631
0.1317518651485443
-0.015397228300571442
-0.16109195351600647
-0.3010846972465515
-0.4318055510520935
-0.5505562424659729
-0.6555364727973938
-0.7457390427589417
-0.8207778930664062
-0.8806936740875244
-0.9257858395576477
-0.9564681649208069
-0.9731764197349548
-0.9763073325157166
-0.9661868214607239
-0.9430686831474304
-0.9071522355079651
-0.8586177825927734
-0.7976810336112976
-0.7246559262275696
-0.6400311589241028
-0.5445383191108704
-0.43922218680381775
-0.3254782557487488
-0.20506390929222107
-0.08006029576063156
0.04719933122396469
0.1742483377456665
0.2986156940460205
0.4179450571537018
0.5301063656806946
0.6332437992095947
0.725810170173645
0.8065516948699951
0.8744712471961975
0.9287834763526917
0.9688640236854553
0.9942095875740051
1.0044113397598267
0.9991491436958313
0.9782128930091858
0.9415478110313416
0.8893168568611145
0.8219802975654602
0.7403588891029358
0.6456814408302307
0.5395849943161011
0.42407140135765076
0.3014218509197235
0.17408421635627747
0.044552236795425415
-0.08473929017782211
-0.21150168776512146
-0.3336454927921295
-0.4493073523044586
-0.5568579435348511
-0.6548882126808167
-0.7421965003013611
-0.8177595734596252
-0.8807145953178406
-0.9303396344184875
-0.9660349488258362
-0.9873155951499939
-0.993800938129425
-0.9852152466773987
-0.9614085555076599
-0.9223714470863342
-0.8682777881622314
-0.7995299696922302
-0.7168158292770386
-0.6211646199226379
-0.5139889121055603
-0.3971097767353058
-0.27273431420326233
-0.14339712262153625
-0.011850066483020782
0.11907894164323807
0.24665144085884094
0.36836332082748413
0.48207810521125793
0.5860911011695862
0.6791748404502869
0.7605488896369934
0.8298402428627014
0.8870081305503845
0.9322679042816162
0.8808777928352356
0.9217780232429504
0.9517673254013062
0.9694991111755371
0.9736002087593079
0.9627116322517395
0.9355440139770508
0.8909894824028015
0.8282833695411682
0.7471996545791626
0.6482778191566467
0.5330072641372681
0.4039139747619629
0.2645004391670227
0.1189887598156929
-0.028079666197299957
-0.17228925228118896
-0.3097553849220276
-0.4373726546764374
-0.5529057383537292
-0.654931366443634
-0.7426980137825012
-0.8159449100494385
-0.8747390508651733
-0.9193276166915894
-0.9500306248664856
-0.9671712517738342
-0.9710293412208557
-0.9618250727653503
-0.9397216439247131
-0.9048481583595276
-0.8573383688926697
-0.7973843216896057
-0.7252960205078125
-0.6415708065032959
-0.5469588041305542
-0.44251224398612976
-0.3296176791191101
-0.20999595522880554
-0.0856633260846138
0.04113449901342392
0.1680239737033844
0.29260918498039246
0.4125801622867584
0.5258025527000427
0.6303746700286865
0.7246586680412292
0.8072779774665833
0.877093493938446
0.9331653118133545
0.9747175574302673
1.0011087656021118
1.0118186473846436
1.0064561367034912
0.984795331954956
0.946831464767456
0.8928582072257996
0.8235300779342651
0.7399155497550964
0.6435025930404663
0.5361515879631042
0.42000648379325867
0.29737749695777893
0.17062783241271973
0.04207751899957657
-0.08605337888002396
-0.2116764485836029
-0.33285436034202576
-0.447808176279068
-0.5549313426017761
-0.6527893543243408
-0.7401304841041565
-0.8158746361732483
-0.8791066408157349
-0.9290643334388733
-0.9651206135749817
-0.9867743849754333
-0.9936355948448181
-0.9854299426078796
-0.9620042443275452
-0.9233419895172119
-0.8696004748344421
-0.8011533617973328
-0.7186458110809326
-0.6230510473251343
-0.5157293677330017
-0.39845168590545654
-0.2734038531780243
-0.1431334912776947
-0.010454662144184113
0.12170267850160599
0.2504611313343048
0.37315860390663147
0.48750725388526917
0.5916779041290283
0.6843505501747131
0.7647009491920471
0.8323546051979065
0.8873024582862854
0.9298185110092163
0.8764843344688416
0.9192310571670532
0.9505830407142639
0.969017744064331
0.973017156124115
0.9611298441886902
0.9320582747459412
0.8848034739494324
0.8188478350639343
0.7343634963035583
0.6324041485786438
0.5150166749954224
0.38522082567214966
0.24681875109672546
0.10405897349119186
-0.03878370672464371
-0.17778590321540833
-0.30965349078178406
-0.4318503141403198
-0.542585015296936
-0.6407122611999512
-0.7255917191505432
-0.7969464063644409
-0.8547322750091553
-0.8990400433540344
-0.9300200939178467
-0.9478313326835632
-0.9526132941246033
-0.944476306438446
-0.9235078692436218
-0.8898018002510071
-0.8434925079345703
-0.7848088145256042
-0.714127242565155
-0.6320264339447021
-0.5393367409706116
-0.43716368079185486
-0.326898455619812
-0.21019861102104187
-0.08894769102334976
0.03480175882577896
0.15889433026313782
0.28114160895347595
0.39939001202583313
0.5115842223167419
0.6158168911933899
0.7103624939918518
0.7936985492706299
0.8644970059394836
0.9216170907020569
0.9640889763832092
0.9911004304885864
1.0020085573196411
0.9963611960411072
0.9739547967910767
0.9348957538604736
0.8796754479408264
0.8092160224914551
0.7248839735984802
0.628435492515564
0.5219181776046753
0.4075362980365753
0.28751659393310547
0.1640143096446991
0.039059288799762726
-0.08543530851602554
-0.20765981078147888
-0.3258729577064514
-0.43840083479881287
-0.5436496734619141
-0.6401313543319702
-0.7265014052391052
-0.8015772700309753
-0.8643518090248108
-0.9139925241470337
-0.9498290419578552
-0.9713465571403503
-0.9781658053398132
-0.9700434803962708
-0.9468657374382019
-0.908663809299469
-0.855635404586792
-0.7881767749786377
-0.7069345116615295
-0.612857460975647
-0.5072458982467651
-0.39179420471191406
-0.2685949504375458
-0.1401090919971466
-0.0090814009308815
0.1215892806649208
0.24901160597801208
0.3704775869846344
0.4836154878139496
0.5865024924278259
0.6777270436286926
0.7563902735710144
0.8220635056495667
0.8747171759605408
0.9146250486373901
0.8582674264907837
0.9017587304115295
0.9333671927452087
0.9514198899269104
0.9543124437332153
0.9405938386917114
0.9090920090675354
0.8590832948684692
0.7904787659645081
0.7039995193481445
0.6012895703315735
0.484911173582077
0.358182817697525
0.22490164637565613
0.0889754518866539
-0.0459144189953804
-0.1765725016593933
-0.30040526390075684
-0.4154398739337921
-0.5202440619468689
-0.6138250231742859
-0.6955215930938721
-0.7649158835411072
-0.8217536211013794
-0.8658947348594666
-0.8972680568695068
-0.9158361554145813
-0.9215894937515259
-0.9145366549491882
-0.8947146534919739
-0.8622205853462219
-0.8172403573989868
-0.7600994110107422
-0.6913004517555237
-0.6115620136260986
-0.5218348503112793
-0.42330029606819153
-0.31734633445739746
-0.20553502440452576
-0.08955729752779007
0.028802402317523956
0.14769738912582397
0.2652369737625122
0.37950894236564636
0.48860377073287964
0.5906521081924438
0.6838608384132385
0.7665521502494812
0.8371915221214294
0.8944092988967896
0.9370182752609253
0.9640275239944458
0.9746790528297424
0.9684949517250061
0.9453445076942444
0.9055135846138
0.84975665807724
0.77930748462677
0.6958298087120056
0.6013016700744629
0.49786412715911865
0.3876642882823944
0.27272650599479675
0.15489926934242249
0.035859763622283936
-0.08283264189958572
-0.19966444373130798
-0.3131076991558075
-0.42160195112228394
-0.5235661268234253
-0.6174489259719849
-0.701793372631073
-0.7752856612205505
-0.836800217628479
-0.8854112029075623
-0.9203988909721375
-0.9412359595298767
-0.9475745558738708
-0.9392275214195251
-0.9161686897277832
-0.8785192370414734
-0.8265683650970459
-0.7607852816581726
-0.6818575263023376
-0.590731680393219
-0.4886569082736969
-0.37722232937812805
-0.2583705186843872
-0.1343817412853241
-0.007813610136508942
0.11860305815935135
0.24210241436958313
0.36004242300987244
0.47005507349967957
0.5701683163642883
0.6588823795318604
0.7351983785629272
0.7985836863517761
0.8489229083061218
0.8864255547523499
0.8260589838027954
0.8690114617347717
0.8996157646179199
0.9161071181297302
0.9168826937675476
0.9006191492080688
0.8664354681968689
0.8140552639961243
0.7439711689949036
0.6575297713279724
0.5569257736206055
0.4450512230396271
0.32523617148399353
0.20092371106147766
0.07537778466939926
-0.0485384538769722
-0.16844776272773743
-0.28245416283607483
-0.3890673518180847
-0.48710599541664124
-0.5756186246871948
-0.6538262367248535
-0.7210851311683655
-0.7768735289573669
-0.8207710385322571
-0.8524556159973145
-0.8716873526573181
-0.8783063888549805
-0.8722387552261353
-0.8535032868385315
-0.8222418427467346
-0.7787473201751709
-0.7234909534454346
-0.6571517586708069
-0.5806130170822144
-0.4949600398540497
-0.40143510699272156
-0.30139297246932983
-0.196252703666687
-0.08746588975191116
0.023498348891735077
0.13514068722724915
0.24590852856636047
0.3541709780693054
0.458206444978714
0.5562206506729126
0.646384060382843
0.7268854975700378
0.7959917187690735
0.8521103262901306
0.8938418030738831
0.9200399518013
0.9298673272132874
0.9228784441947937
0.8990816473960876
0.8590034246444702
0.8037011623382568
0.7347138524055481
0.6539421677589417
0.5634759068489075
0.4654110372066498
0.36169925332069397
0.25406327843666077
0.14399045705795288
0.03279007226228714
-0.07831085473299026
-0.1880722939968109
-0.29516345262527466
-0.39813369512557983
-0.4954264461994171
-0.5854422450065613
-0.6666155457496643
-0.7375069856643677
-0.7968621850013733
-0.8436588644981384
-0.8771241307258606
-0.896727979183197
-0.9021678566932678
-0.893345832824707
-0.8703470230102539
-0.8334248065948486
-0.7829914689064026
-0.7196230292320251
-0.6440756320953369
-0.5573118329048157
-0.4605289399623871
-0.35519275069236755
-0.24305108189582825
-0.12613198161125183
-0.006703712046146393
0.11278916150331497
0.22983261942863464
0.34196510910987854
0.4469171464443207
0.5427245497703552
0.6278219223022461
0.7010886073112488
0.761850118637085
0.8098453879356384
0.8451563715934753
0.7798773050308228
0.8208701610565186
0.8491265773773193
0.8628804087638855
0.8606553673744202
0.8414193987846375
0.8047438263893127
0.7509499192237854
0.6811777353286743
0.5973560214042664
0.502051830291748
0.3982028067111969
0.28881728649139404
0.17670109868049622
0.06427603214979172
-0.04647219926118851
-0.15396276116371155
-0.25690194964408875
-0.3541772663593292
-0.444762259721756
-0.5276715755462646
-0.601950466632843
-0.6666990518569946
-0.7210953235626221
-0.7644302248954773
-0.7961223721504211
-0.8157300353050232
-0.8229638934135437
-0.8176915049552917
-0.7999562621116638
-0.7699888944625854
-0.7282329797744751
-0.6753491759300232
-0.6122080683708191
-0.5398631691932678
-0.4595020115375519
-0.3723812401294708
-0.27976566553115845
-0.18288230895996094
-0.08290465921163559
0.01902381330728531
0.12174952775239944
0.22404515743255615
0.3245530426502228
0.42174971103668213
0.5139414668083191
0.5992995500564575
0.675920307636261
0.7419182062149048
0.7955187559127808
0.835162341594696
0.8595964908599854
0.8679824471473694
0.8599754571914673
0.8357974290847778
0.7962582111358643
0.7427090406417847
0.676922082901001
0.6009072661399841
0.5167036652565002
0.42620372772216797
0.33104434609413147
0.23257985711097717
0.1319310963153839
0.030077606439590454
-0.07202748209238052
-0.17335903644561768
-0.2727430760860443
-0.3688262701034546
-0.4600919187068939
-0.5449204444885254
-0.6216814517974854
-0.6888335347175598
-0.745022177696228
-0.7891446352005005
-0.8203843832015991
-0.8382223844528198
-0.8424160480499268
-0.8329731225967407
-0.8101111054420471
-0.7742288708686829
-0.7258791923522949
-0.6657558083534241
-0.5946910977363586
-0.5136645436286926
-0.42382103204727173
-0.32648757100105286
-0.22318580746650696
-0.11564386636018753
-0.005773462355136871
0.10435573011636734
0.21258297562599182
0.3167329728603363
0.4147244393825531
0.5046713948249817
0.5849782824516296
0.6544097661972046
0.7121245861053467
0.7576691508293152
0.7909439206123352
0.7199366688728333
0.7574754953384399
0.7820509672164917
0.792023241519928
0.7862020134925842
0.7640044093132019
0.7256000638008118
0.6719639897346497
0.604836106300354
0.5265446901321411
0.4397367537021637
0.34707722067832947
0.25097617506980896
0.15342974662780762
0.0559799000620842
-0.040213920176029205
-0.13424170017242432
-0.2252899706363678
-0.3125198185443878
-0.39499056339263916
-0.4716487228870392
-0.5413589477539062
-0.6029608845710754
-0.6553502678871155
-0.6975350975990295
-0.7286930680274963
-0.7482056617736816
-0.7556771039962769
-0.7509596347808838
-0.7341592311859131
-0.7056423425674438
-0.6660370230674744
-0.6162065863609314
-0.5572039484977722
-0.4902125895023346
-0.416460245847702
-0.3371427357196808
-0.2533642053604126
-0.16611027717590332
-0.07626522332429886
0.015341974794864655
0.10786160081624985
0.20034250617027283
0.291657418012619
0.38045817613601685
0.4651587903499603
0.5439640283584595
0.6149393916130066
0.6761178374290466
0.725627601146698
0.7618364691734314
0.7834897637367249
0.7898387312889099
0.7807324528694153
0.7566623687744141
0.7187183499336243
0.6684799194335938
0.607815146446228
0.5386619567871094
0.46282580494880676
0.38185104727745056
0.29697421193122864
0.2091650664806366
0.11921218782663345
0.027836300432682037
-0.06420443207025528
-0.15602406859397888
-0.24655380845069885
-0.33451634645462036
-0.4184478521347046
-0.49674662947654724
-0.5677716135978699
-0.6299454569816589
-0.6818650364875793
-0.7223870158195496
-0.7506871223449707
-0.7662751078605652
-0.7689824104309082
-0.7589236497879028
-0.7364486455917358
-0.7020962834358215
-0.656548023223877
-0.6006017923355103
-0.5351535081863403
-0.46118882298469543
-0.37978801131248474
-0.2921263873577118
-0.1994900405406952
-0.10327927023172379
-0.005019523203372955
0.09364884346723557
0.19098013639450073
0.285163938999176
0.37439125776290894
0.4569256901741028
0.5312005281448364
0.5958939790725708
0.6499989032745361
0.6928508281707764
0.7241290211677551
0.6466725468635559
0.6792848706245422
0.6989805698394775
0.7044075131416321
0.6948227286338806
0.6702342629432678
0.6314631700515747
0.5800869464874268
0.5182527899742126
0.4483959674835205
0.37292593717575073
0.2939554750919342
0.2131364345550537
0.13162729144096375
0.050171785056591034
-0.03075364977121353
-0.11075399070978165
-0.18936794996261597
-0.26594623923301697
-0.3395978510379791
-0.40920376777648926
-0.47346988320350647
-0.5310201644897461
-0.5805022120475769
-0.6206852793693542
-0.6505443453788757
-0.6693224906921387
-0.6765658855438232
-0.6721529960632324
-0.65629643201828
-0.6295334696769714
-0.5926854610443115
-0.5468029379844666
-0.4930742681026459
-0.4327349364757538
-0.3669617772102356
-0.2968005836009979
-0.22313031554222107
-0.14666399359703064
-0.06799832731485367
0.012309826910495758
0.09365399926900864
0.17528697848320007
0.25625118613243103
0.3353291153907776
0.41102826595306396
0.4816169738769531
0.5451925992965698
0.5997999310493469
0.6435903310775757
0.6749906539916992
0.6928749680519104
0.6967045664787292
0.6866053938865662
0.6633564233779907
0.6282809972763062
0.5830489993095398
0.5294426083564758
0.4691289961338043
0.40351685881614685
0.33369240164756775
0.26046010851860046
0.18442532420158386
0.10610734671354294
0.026048123836517334
-0.055104903876781464
-0.1365373432636261
-0.21723052859306335
-0.2959604263305664
-0.371316522359848
-0.44175997376441956
-0.5056996941566467
-0.5616008639335632
-0.6080924868583679
-0.6440637707710266
-0.6687287092208862
-0.6816595196723938
-0.6827666759490967
-0.6722676157951355
-0.650618851184845
-0.61846524477005
-0.5765803456306458
-0.5258316397666931
-0.46714404225349426
-0.40148675441741943
-0.3298552930355072
-0.2532690167427063
-0.17277252674102783
-0.08944622427225113
-0.004419215023517609
0.08110009878873825
0.16581079363822937
0.24831494688987732
0.32713496685028076
0.40075498819351196
0.467703253030777
0.5266311764717102
0.5763958096504211
0.6161298751831055
0.645280122756958
0.5607813000679016
0.5871402621269226
0.6010343432426453
0.6015697717666626
0.5885931253433228
0.5627646446228027
0.5255011916160583
0.4787888824939728
0.42489075660705566
0.3660258948802948
0.30408477783203125
0.2404685914516449
0.17604312300682068