# vtk DataFile Version 3.0
2D PINN Solution
ASCII
DATASET STRUCTURED_GRID
DIMENSIONS 100 100 1
POINTS 10000 float
-1.0 -1.0 0.0
-0.9797979797979798 -1.0 0.0
-0.9595959595959596 -1.0 0.0
-0.9393939393939394 -1.0 0.0
-0.9191919191919192 -1.0 0.0
-0.898989898989899 -1.0 0.0
-0.8787878787878788 -1.0 0.0
-0.8585858585858586 -1.0 0.0
-0.8383838383838383 -1.0 0.0
-0.8181818181818181 -1.0 0.0
-0.797979797979798 -1.0 0.0
-0.7777777777777778 -1.0 0.0
-0.7575757575757576 -1.0 0.0
-0.7373737373737373 -1.0 0.0
-0.7171717171717171 -1.0 0.0
-0.696969696969697 -1.0 0.0
-0.6767676767676767 -1.0 0.0
-0.6565656565656566 -1.0 0.0
-0.6363636363636364 -1.0 0.0
-0.6161616161616161 -1.0 0.0
-0.5959595959595959 -1.0 0.0
-0.5757575757575757 -1.0 0.0
-0.5555555555555556 -1.0 0.0
-0.5353535353535352 -1.0 0.0
-0.5151515151515151 -1.0 0.0
-0.4949494949494949 -1.0 0.0
-0.4747474747474747 -1.0 0.0
-0.4545454545454545 -1.0 0.0
-0.43434343434343425 -1.0 0.0
-0.41414141414141414 -1.0 0.0
-0.3939393939393939 -1.0 0.0
-0.3737373737373737 -1.0 0.0
-0.3535353535353535 -1.0 0.0
-0.33333333333333326 -1.0 0.0
-0.31313131313131304 -1.0 0.0
-0.2929292929292928 -1.0 0.0
-0.2727272727272727 -1.0 0.0
-0.2525252525252525 -1.0 0.0
-0.23232323232323226 -1.0 0.0
-0.21212121212121204 -1.0 0.0
-0.19191919191919182 -1.0 0.0
-0.1717171717171716 -1.0 0.0
-0.1515151515151515 -1.0 0.0
-0.13131313131313127 -1.0 0.0
-0.11111111111111105 -1.0 0.0
-0.09090909090909083 -1.0 0.0
-0.07070707070707061 -1.0 0.0
-0.050505050505050386 -1.0 0.0
-0.030303030303030276 -1.0 0.0
-0.010101010101010055 -1.0 0.0
0.010101010101010166 -1.0 0.0
0.030303030303030498 -1.0 0.0
0.05050505050505061 -1.0 0.0
0.07070707070707072 -1.0 0.0
0.09090909090909105 -1.0 0.0
0.11111111111111116 -1.0 0.0
0.1313131313131315 -1.0 0.0
0.1515151515151516 -1.0 0.0
0.1717171717171717 -1.0 0.0
0.19191919191919204 -1.0 0.0
0.21212121212121215 -1.0 0.0
0.2323232323232325 -1.0 0.0
0.2525252525252526 -1.0 0.0
0.27272727272727293 -1.0 0.0
0.29292929292929304 -1.0 0.0
0.31313131313131315 -1.0 0.0
0.3333333333333335 -1.0 0.0
0.3535353535353536 -1.0 0.0
0.3737373737373739 -1.0 0.0
0.39393939393939403 -1.0 0.0
0.41414141414141437 -1.0 0.0
0.4343434343434345 -1.0 0.0
0.4545454545454546 -1.0 0.0
0.4747474747474749 -1.0 0.0
0.49494949494949503 -1.0 0.0
0.5151515151515154 -1.0 0.0
0.5353535353535355 -1.0 0.0
0.5555555555555556 -1.0 0.0
0.5757575757575759 -1.0 0.0
0.595959595959596 -1.0 0.0
0.6161616161616164 -1.0 0.0
0.6363636363636365 -1.0 0.0
0.6565656565656568 -1.0 0.0
0.6767676767676769 -1.0 0.0
0.696969696969697 -1.0 0.0
0.7171717171717173 -1.0 0.0
0.7373737373737375 -1.0 0.0
0.7575757575757578 -1.0 0.0
0.7777777777777779 -1.0 0.0
0.7979797979797982 -1.0 0.0
0.8181818181818183 -1.0 0.0
0.8383838383838385 -1.0 0.0
0.8585858585858588 -1.0 0.0
0.8787878787878789 -1.0 0.0
0.8989898989898992 -1.0 0.0
0.9191919191919193 -1.0 0.0
0.9393939393939394 -1.0 0.0
0.9595959595959598 -1.0 0.0
0.9797979797979799 -1.0 0.0
1.0 -1.0 0.0
-1.0 -0.9797979797979798 0.0
-0.9797979797979798 -0.9797979797979798 0.0
-0.9595959595959596 -0.9797979797979798 0.0
-0.9393939393939394 -0.9797979797979798 0.0
-0.9191919191919192 -0.9797979797979798 0.0
-0.898989898989899 -0.9797979797979798 0.0
-0.8787878787878788 -0.9797979797979798 0.0
-0.8585858585858586 -0.9797979797979798 0.0
-0.8383838383838383 -0.9797979797979798 0.0
-0.8181818181818181 -0.9797979797979798 0.0
-0.797979797979798 -0.9797979797979798 0.0
-0.7777777777777778 -0.9797979797979798 0.0
-0.7575757575757576 -0.9797979797979798 0.0
-0.7373737373737373 -0.9797979797979798 0.0
-0.7171717171717171 -0.9797979797979798 0.0
-0.696969696969697 -0.9797979797979798 0.0
-0.6767676767676767 -0.9797979797979798 0.0
-0.6565656565656566 -0.9797979797979798 0.0
-0.6363636363636364 -0.9797979797979798 0.0
-0.6161616161616161 -0.9797979797979798 0.0
-0.5959595959595959 -0.9797979797979798 0.0
-0.5757575757575757 -0.9797979797979798 0.0
-0.5555555555555556 -0.9797979797979798 0.0
-0.5353535353535352 -0.9797979797979798 0.0
-0.5151515151515151 -0.9797979797979798 0.0
-0.4949494949494949 -0.9797979797979798 0.0
-0.4747474747474747 -0.9797979797979798 0.0
-0.4545454545454545 -0.9797979797979798 0.0
-0.43434343434343425 -0.9797979797979798 0.0
-0.41414141414141414 -0.9797979797979798 0.0
-0.3939393939393939 -0.9797979797979798 0.0
-0.3737373737373737 -0.9797979797979798 0.0
-0.3535353535353535 -0.9797979797979798 0.0
-0.33333333333333326 -0.9797979797979798 0.0
-0.31313131313131304 -0.9797979797979798 0.0
-0.2929292929292928 -0.9797979797979798 0.0
-0.2727272727272727 -0.9797979797979798 0.0
-0.2525252525252525 -0.9797979797979798 0.0
-0.23232323232323226 -0.9797979797979798 0.0
-0.21212121212121204 -0.9797979797979798 0.0
-0.19191919191919182 -0.9797979797979798 0.0
-0.1717171717171716 -0.9797979797979798 0.0
-0.1515151515151515 -0.9797979797979798 0.0
-0.13131313131313127 -0.9797979797979798 0.0
-0.11111111111111105 -0.9797979797979798 0.0
-0.09090909090909083 -0.9797979797979798 0.0
-0.07070707070707061 -0.9797979797979798 0.0
-0.050505050505050386 -0.9797979797979798 0.0
-0.030303030303030276 -0.9797979797979798 0.0
-0.010101010101010055 -0.9797979797979798 0.0
0.010101010101010166 -0.9797979797979798 0.0
0.030303030303030498 -0.9797979797979798 0.0
0.05050505050505061 -0.9797979797979798 0.0
0.07070707070707072 -0.9797979797979798 0.0
0.09090909090909105 -0.9797979797979798 0.0
0.11111111111111116 -0.9797979797979798 0.0
0.1313131313131315 -0.9797979797979798 0.0
0.1515151515151516 -0.9797979797979798 0.0
0.1717171717171717 -0.9797979797979798 0.0
0.19191919191919204 -0.9797979797979798 0.0
0.21212121212121215 -0.9797979797979798 0.0
0.2323232323232325 -0.9797979797979798 0.0
0.2525252525252526 -0.9797979797979798 0.0
0.27272727272727293 -0.9797979797979798 0.0
0.29292929292929304 -0.9797979797979798 0.0
0.31313131313131315 -0.9797979797979798 0.0
0.3333333333333335 -0.9797979797979798 0.0
0.3535353535353536 -0.9797979797979798 0.0
0.3737373737373739 -0.9797979797979798 0.0
0.39393939393939403 -0.9797979797979798 0.0
0.41414141414141437 -0.9797979797979798 0.0
0.4343434343434345 -0.9797979797979798 0.0
0.4545454545454546 -0.9797979797979798 0.0
0.4747474747474749 -0.9797979797979798 0.0
0.49494949494949503 -0.9797979797979798 0.0
0.5151515151515154 -0.9797979797979798 0.0
0.5353535353535355 -0.9797979797979798 0.0
0.5555555555555556 -0.9797979797979798 0.0
0.5757575757575759 -0.9797979797979798 0.0
0.595959595959596 -0.9797979797979798 0.0
0.6161616161616164 -0.9797979797979798 0.0
0.6363636363636365 -0.9797979797979798 0.0
0.6565656565656568 -0.9797979797979798 0.0
0.6767676767676769 -0.9797979797979798 0.0
0.696969696969697 -0.9797979797979798 0.0
0.7171717171717173 -0.9797979797979798 0.0
0.7373737373737375 -0.9797979797979798 0.0
0.7575757575757578 -0.9797979797979798 0.0
0.7777777777777779 -0.9797979797979798 0.0
0.7979797979797982 -0.9797979797979798 0.0
0.8181818181818183 -0.9797979797979798 0.0
0.8383838383838385 -0.9797979797979798 0.0
0.8585858585858588 -0.9797979797979798 0.0
0.8787878787878789 -0.9797979797979798 0.0
0.8989898989898992 -0.9797979797979798 0.0
0.9191919191919193 -0.9797979797979798 0.0
0.9393939393939394 -0.9797979797979798 0.0
0.9595959595959598 -0.9797979797979798 0.0
0.9797979797979799 -0.9797979797979798 0.0
1.0 -0.9797979797979798 0.0
-1.0 -0.9595959595959596 0.0
-0.9797979797979798 -0.9595959595959596 0.0
-0.9595959595959596 -0.9595959595959596 0.0
-0.9393939393939394 -0.9595959595959596 0.0
-0.9191919191919192 -0.9595959595959596 0.0
-0.898989898989899 -0.9595959595959596 0.0
-0.8787878787878788 -0.9595959595959596 0.0
-0.8585858585858586 -0.9595959595959596 0.0
-0.8383838383838383 -0.9595959595959596 0.0
-0.8181818181818181 -0.9595959595959596 0.0
-0.797979797979798 -0.9595959595959596 0.0
-0.7777777777777778 -0.9595959595959596 0.0
-0.7575757575757576 -0.9595959595959596 0.0
-0.7373737373737373 -0.9595959595959596 0.0
-0.7171717171717171 -0.9595959595959596 0.0
-0.696969696969697 -0.9595959595959596 0.0
-0.6767676767676767 -0.9595959595959596 0.0
-0.6565656565656566 -0.9595959595959596 0.0
-0.6363636363636364 -0.9595959595959596 0.0
-0.6161616161616161 -0.9595959595959596 0.0
-0.5959595959595959 -0.9595959595959596 0.0
-0.5757575757575757 -0.9595959595959596 0.0
-0.5555555555555556 -0.9595959595959596 0.0
-0.5353535353535352 -0.9595959595959596 0.0
-0.5151515151515151 -0.9595959595959596 0.0
-0.4949494949494949 -0.9595959595959596 0.0
-0.4747474747474747 -0.9595959595959596 0.0
-0.4545454545454545 -0.9595959595959596 0.0
-0.43434343434343425 -0.9595959595959596 0.0
-0.41414141414141414 -0.9595959595959596 0.0
-0.3939393939393939 -0.9595959595959596 0.0
-0.3737373737373737 -0.9595959595959596 0.0
-0.3535353535353535 -0.9595959595959596 0.0
-0.33333333333333326 -0.9595959595959596 0.0
-0.31313131313131304 -0.9595959595959596 0.0
-0.2929292929292928 -0.9595959595959596 0.0
-0.2727272727272727 -0.9595959595959596 0.0
-0.2525252525252525 -0.9595959595959596 0.0
-0.23232323232323226 -0.9595959595959596 0.0
-0.21212121212121204 -0.9595959595959596 0.0
-0.19191919191919182 -0.9595959595959596 0.0
-0.1717171717171716 -0.9595959595959596 0.0
-0.1515151515151515 -0.9595959595959596 0.0
-0.13131313131313127 -0.9595959595959596 0.0
-0.11111111111111105 -0.9595959595959596 0.0
-0.09090909090909083 -0.9595959595959596 0.0
-0.07070707070707061 -0.9595959595959596 0.0
-0.050505050505050386 -0.9595959595959596 0.0
-0.030303030303030276 -0.9595959595959596 0.0
-0.010101010101010055 -0.9595959595959596 0.0
0.010101010101010166 -0.9595959595959596 0.0
0.030303030303030498 -0.9595959595959596 0.0
0.05050505050505061 -0.9595959595959596 0.0
0.07070707070707072 -0.9595959595959596 0.0
0.09090909090909105 -0.9595959595959596 0.0
0.11111111111111116 -0.9595959595959596 0.0
0.1313131313131315 -0.9595959595959596 0.0
0.1515151515151516 -0.9595959595959596 0.0
0.1717171717171717 -0.9595959595959596 0.0
0.19191919191919204 -0.9595959595959596 0.0
0.21212121212121215 -0.9595959595959596 0.0
[...]
POINT_DATA 10000
SCALARS u float 1
LOOKUP_TABLE default
0.15860405564308167
0.2018217146396637
0.24058982729911804
0.2745523154735565
0.3034159541130066
0.32694533467292786
0.3449680507183075
0.35736826062202454
0.364088773727417
0.3651339113712311
0.3605698049068451
0.35052838921546936
0.3352080285549164
0.3148757815361023
0.28986984491348267
0.2605951130390167
0.2275223433971405
0.1911773383617401
0.15213507413864136
0.11100270599126816
0.06839906424283981
0.024945609271526337
-0.018756307661533356
-0.06213485449552536
-0.1046409085392952
-0.14575299620628357
-0.1849519908428192
-0.2217111587524414
-0.25547733902931213
-0.2856716811656952
-0.3116986155509949
-0.33297255635261536
-0.34895727038383484
-0.3592135012149811
-0.36343833804130554
-0.3615003526210785
-0.3534488081932068
-0.3395085632801056
-0.32005369663238525
-0.29557061195373535
-0.2666160464286804
-0.2337796688079834
-0.19764873385429382
-0.15879786014556885
-0.11777719110250473
-0.07511845976114273
-0.03134714812040329
0.013002999126911163
0.05737658590078354
0.1011795625090599
0.14377692341804504
0.18448567390441895
0.2225889265537262
0.25734633207321167
0.2880220115184784
0.31391987204551697
0.33441269397735596
0.34898868203163147
0.3572830855846405
0.35911014676094055
0.35447728633880615
0.3435921370983124
0.3268367350101471
0.3047352731227875
0.27790555357933044
0.24699893593788147
0.21265462040901184
0.17546385526657104
0.13595566153526306
0.09459999948740005
0.0518324077129364
0.008080936968326569
-0.03620214760303497
-0.0805082842707634
-0.1242547407746315
-0.16677433252334595
-0.207326740026474
-0.24510756134986877
-0.2792949676513672
-0.30908456444740295
-0.33374184370040894
-0.35265058279037476
-0.36535459756851196
-0.371584415435791
-0.3712719678878784
-0.3645445704460144
-0.3516989052295685
-0.3331696093082428
-0.3094882369041443
-0.28123030066490173
-0.24897825717926025
-0.21327874064445496
-0.17462050914764404
-0.1334107518196106
-0.089969702064991
-0.044541262090206146
0.0026987791061401367
0.05161546915769577
0.10208740085363388
0.15397614240646362
0.2111632525920868
0.2588183581829071
0.3019268810749054
0.34004804491996765
0.37280726432800293
0.399894118309021
0.4210567772388458
0.4361041784286499
0.4449005424976349
0.4473726749420166
0.4435044527053833
0.43334466218948364
0.41700902581214905
0.39468052983283997
0.36661574244499207
0.33314383029937744
0.2946687340736389
0.2516639232635498
0.20466819405555725
0.15427878499031067
0.1011398509144783
0.04593276232481003
-0.010627992451190948
-0.06779598444700241
-0.12478896230459213
-0.1807783842086792
-0.23487719893455505
-0.28613337874412537
-0.33354049921035767
-0.3760606348514557
-0.41267064213752747
-0.4424215853214264
-0.46450498700141907
-0.4783143103122711
-0.48349377512931824
-0.47996070981025696
-0.4679112136363983
-0.44778695702552795
-0.42024025321006775
-0.38606610894203186
-0.34614297747612
-0.3013744652271271
-0.2526436746120453
-0.20078304409980774
-0.14656436443328857
-0.09070489555597305
-0.03388337045907974
0.023236356675624847
0.07998204976320267
0.13565054535865784
0.18949568271636963
0.24072682857513428
0.28851553797721863
0.33201566338539124
0.3703915774822235
0.4028542935848236
0.4286996126174927
0.44734108448028564
0.4583505094051361
0.46147775650024414
0.4566691219806671
0.4440748989582062
0.4240380823612213
0.39706891775131226
0.36380520462989807
0.32496002316474915
0.28127530217170715
0.2334778606891632
0.18225474655628204
0.12825645506381989
0.07211177051067352
0.01445578783750534
-0.04403337091207504
-0.10260721296072006
-0.16042447090148926
-0.21654948592185974
-0.26996883749961853
-0.3196161687374115
-0.3644183278083801
-0.4033490717411041
-0.4354883134365082
-0.46007052063941956
-0.47653862833976746
-0.48456552624702454
-0.4840734302997589
-0.4752240478992462
-0.45839765667915344
-0.4341491758823395
-0.4031710624694824
-0.36623457074165344
-0.32413944602012634
-0.27766814827919006
-0.2275507152080536
-0.17443564534187317
-0.11887792497873306
-0.061340369284152985
-0.0022067949175834656
0.058197297155857086
0.11957783252000809
0.1816369891166687
0.25957968831062317
0.3118913769721985
0.35963666439056396
0.40228766202926636
0.4393821954727173
0.4705235958099365
0.49537646770477295
0.5136607885360718
0.525157630443573
0.5296962261199951
0.5271662473678589
0.5175134539604187
0.5007445812225342
0.47693315148353577
0.44622549414634705
0.40884536504745483
0.3650999963283539
0.31538689136505127
0.2601949870586395
0.20011171698570251
0.13582298159599304
0.06811799854040146
-0.0021078214049339294
-0.07384783774614334
-0.14597570896148682
-0.21724817156791687
-0.2863100469112396
-0.35172125697135925
-0.41201066970825195
-0.46572980284690857
-0.5115368366241455
-0.5482748746871948
-0.5750358700752258
-0.5912116169929504
-0.5965160727500916
-0.5909900069236755
-0.5749778151512146
-0.5490905046463013
-0.5141609907150269
-0.4711763560771942
-0.42122340202331543
-0.36542239785194397
-0.30487748980522156
-0.24063965678215027
-0.17369124293327332
-0.10494651645421982
-0.03526625782251358
0.03451655060052872
0.10356754809617996
0.17103049159049988
0.23601409792900085
0.2975904047489166
0.3548057973384857
0.40670910477638245
0.4523816406726837
0.49097326397895813
0.5217365026473999
0.5440570712089539
0.5574806928634644
0.5617258548736572
0.5566990375518799
0.5424948334693909
0.5193982124328613
0.48786649107933044
0.44851192831993103
0.4020620286464691
0.349321573972702
0.29113495349884033
0.2283552587032318
0.1618371605873108
0.09244117140769958
0.021058864891529083
-0.05136489123106003
-0.12380477041006088
-0.19514703750610352
-0.26419171690940857
-0.32968106865882874
-0.3903300166130066
-0.4448799788951874
-0.4921528398990631
-0.5311092734336853
-0.5608974099159241
-0.5808954834938049
-0.5907378792762756
-0.5903273224830627
-0.5798268914222717
-0.5596448183059692
-0.5303949117660522
-0.49285879731178284
-0.44793739914894104
-0.3965970575809479
-0.33981919288635254
-0.2785605490207672
-0.21371546387672424
-0.14609822630882263
-0.07642669230699539
-0.005336858332157135
0.0666097030043602
0.13889744877815247
0.21102994680404663
0.3027218282222748
0.3597806394100189
0.4123412072658539
0.4597807228565216
0.5015447735786438
0.5371419191360474
0.5661470293998718
0.5881848931312561
0.6029358506202698
0.6101263761520386
0.6095317602157593
0.6009759306907654
0.5843341946601868
0.5595419406890869
0.5266019105911255
0.48560139536857605
0.4367204010486603
0.3802544176578522
0.3166358768939972
0.2464522123336792
0.17046964168548584
0.08965238183736801
0.005175285041332245
-0.08156893402338028
-0.1689794659614563
-0.25528237223625183
-0.338578999042511
-0.4169323444366455
-0.4884594976902008
-0.5514352321624756
-0.6043857336044312
-0.6461498141288757
-0.6759197115898132
-0.6932439208030701
-0.6980102062225342
-0.6904142498970032
-0.6709200739860535
-0.6402244567871094
-0.5992135405540466
-0.5489262938499451
-0.49050870537757874
-0.425172358751297
-0.3541468381881714
-0.2786464989185333
-0.1998436152935028
-0.1188645139336586
-0.0367889478802681
0.0453248992562294
0.12642526626586914
0.20544740557670593
0.2813055217266083
0.3529057800769806
0.4191562533378601
0.4790075421333313
0.5314752459526062
0.5756815075874329
0.6108751893043518
0.6364523768424988
0.6519684195518494
0.6571393609046936
0.6518476605415344
0.6361412405967712
0.6102340817451477
0.5745092630386353
0.5295113921165466
0.475938081741333
0.41461923718452454
0.34649208188056946
0.27257412672042847
0.19394466280937195
0.11173958331346512
0.027151338756084442
-0.05856061726808548
-0.1440686583518982
-0.2279784083366394
-0.308847039937973
-0.38521549105644226
-0.4556439220905304
-0.5187670588493347
-0.5733319520950317
-0.6182546019554138
-0.6526544690132141
-0.6758840084075928
-0.6875516176223755
-0.6875309348106384
-0.6759514808654785
-0.6531925797462463
-0.6198577880859375
-0.5767435431480408
-0.524804413318634
-0.46510639786720276
-0.39878448843955994
-0.32699474692344666
-0.2508745789527893
-0.17150965332984924
-0.08991319686174393
-0.007016070187091827
0.07632901519536972
0.15933749079704285
0.2412736415863037
0.3396042585372925
0.40136250853538513
0.45878031849861145
0.5111352205276489
0.5577729940414429
0.598106324672699
0.6316080689430237
0.6578012108802795
0.6762575507164001
0.6865852475166321
0.6884334683418274
0.6814824938774109
0.6654555201530457
0.6401216387748718
0.6053116321563721
0.5609423518180847
0.5070393085479736
0.443783164024353
0.3715466856956482
0.2909460961818695
0.20288881659507751
0.10861346870660782
0.009703017771244049
-0.09192801266908646
-0.1940782368183136
-0.29435858130455017
-0.39031606912612915
-0.4795822203159332
-0.5600144267082214
-0.6298092603683472
-0.6875729560852051
-0.7323431372642517
-0.7635679841041565
-0.7810538411140442
-0.7849053740501404
-0.7754631638526917
-0.7532609105110168
-0.718990683555603
-0.6734849214553833
-0.6177026629447937
-0.552718997001648
-0.47971078753471375
-0.3999282121658325
-0.3146759867668152
-0.22528472542762756
-0.13309001922607422
-0.03942643851041794
0.05437418073415756
0.14698168635368347
0.23706674575805664
0.3233094811439514
0.40441805124282837
0.4791595935821533
0.5463889241218567
0.605084240436554
0.6543648838996887
0.6935073137283325
0.7219474911689758
0.7392711043357849
0.7452107071876526
0.7396358847618103
0.7225494980812073
0.6940951347351074
0.6545662879943848
0.6044243574142456
0.5443085432052612
0.47504451870918274
0.3976425230503082
0.3132784962654114
0.2232728898525238
0.12906590104103088
0.03218936175107956
-0.06575625389814377
-0.16312557458877563
-0.25825735926628113
-0.3495026230812073
-0.43525901436805725
-0.5140071511268616
-0.584344744682312
-0.6450251340866089
-0.6949772834777832
-0.7333384156227112
-0.7594642043113708
-0.772947371006012
-0.7736183404922485
-0.7615464329719543
-0.7370356917381287
-0.700617790222168
-0.6530352234840393
-0.5952220559120178
-0.528278648853302
-0.4534331262111664
-0.3720051646232605
-0.2853563129901886
-0.19485196471214294
-0.10182597488164902
-0.007546432316303253
0.08679910749197006
0.1801077127456665
0.2713664770126343
0.36943319439888
0.43569695949554443
0.4978654682636261
0.5551153421401978
0.6066884398460388
0.651892900466919
0.6900938749313354
0.720702588558197
0.7431716918945312
0.7569833993911743
0.7616419196128845
0.7566716074943542
0.7416215538978577
0.7160699963569641
0.679652750492096
0.6320911049842834
0.5732429027557373
0.5031682848930359
0.4222036600112915
0.3310491740703583
0.23084262013435364
0.12321621924638748
0.010297752916812897
-0.10534850507974625
-0.2208450734615326
-0.33318737149238586
-0.43945077061653137
-0.5370016694068909
-0.6236461997032166
-0.697720468044281
-0.7581014037132263
-0.8041564226150513
-0.8356636166572571
-0.8527049422264099
-0.8555800318717957
-0.8447350859642029
-0.8207124471664429
-0.7841373085975647
-0.7357121109962463
-0.6762374043464661
-0.6066261529922485
-0.5279213190078735
-0.44130709767341614
-0.3480997681617737
-0.24973416328430176
-0.14773604273796082
-0.04370363801717758
0.06073065847158432
0.16391661763191223
0.26421892642974854
0.36005184054374695
0.4499145448207855
0.5324255228042603
0.6063624024391174
0.6706761717796326
0.7245056629180908
0.7671695351600647
0.7981516718864441
0.8170761466026306
0.8236917853355408
0.8178555369377136
0.7995285987854004
0.7687846422195435
0.7258341312408447
0.6710533499717712
0.605024516582489
0.5285652279853821
0.4427531063556671
0.34891918301582336
0.24863189458847046
0.14364242553710938
0.03583024442195892
-0.07286176830530167
-0.18048879504203796
-0.28515759110450745
-0.3850649893283844
-0.478531152009964
-0.5640214085578918
-0.6401638388633728
-0.7057612538337708
-0.7598026990890503
-0.8014681339263916
-0.8301349878311157
-0.8453814387321472
-0.846988320350647
-0.8349454402923584
-0.8094519972801208
-0.7709253430366516
-0.7200016379356384
-0.657537043094635
-0.5846027731895447
-0.5024638772010803
-0.4125519394874573
-0.3164280354976654
-0.215724915266037
-0.11210531741380692
-0.0072006955742836
0.09743066877126694
0.20033210515975952
0.30018243193626404
0.39163270592689514
0.46206119656562805
0.5287231802940369
0.5906926989555359
0.647105872631073
0.6971567273139954
0.7400954365730286
0.7752140164375305
0.801834225654602
0.8192991614341736
0.8269583582878113
0.8241643309593201
0.8102739453315735
0.7846634984016418
0.7467557787895203
0.6960728764533997
0.6323075294494629
0.555424153804779
0.46577683091163635
0.36423489451408386
0.2522812783718109
0.13206902146339417
0.0063806697726249695
-0.12150866538286209
-0.24806150794029236
-0.36976858973503113
-0.4834260046482086
-0.5863593220710754
-0.6765459179878235
-0.7526333332061768
-0.8138725757598877
-0.8600003123283386
-0.8911030292510986
-0.9074903726577759
-0.9095942378044128
-0.8979036808013916
-0.872922956943512
-0.8351708054542542
-0.7851933240890503
-0.7235996723175049
-0.651105523109436
-0.5685768723487854
-0.4770687520503998
-0.37784841656684875
-0.2723933756351471
-0.1623786985874176
-0.04963376373052597
0.0639101192355156
0.17627984285354614
0.2855300009250641
0.389801025390625
0.48738378286361694
0.5767592787742615
0.6566300392150879
0.7259309887886047
0.7838199138641357
0.8296495079994202
0.8629412651062012
0.8833444714546204
0.8906104564666748
0.884573757648468
0.8651521801948547
0.8323588967323303
0.7863364815711975
0.7274050712585449
0.6561140418052673
0.573301374912262
0.48012813925743103
0.37808969616889954
0.26898857951164246
0.15486980974674225
0.03792760521173477
-0.07960046082735062
-0.19552302360534668
-0.3077761232852936
-0.4144628942012787
-0.5138840079307556
-0.6045362949371338
-0.6851117014884949
-0.7544913291931152
-0.8117338418960571
-0.8560717701911926
-0.8869041800498962
-0.9037960171699524
-0.9064798355102539
-0.8948567509651184
-0.8690136075019836
-0.8292340636253357
-0.7760202288627625
-0.7101146578788757
-0.6325104236602783
-0.5444576740264893
-0.44745561480522156
-0.3432122766971588
-0.23360708355903625
-0.12061244994401932
-0.006226368248462677
0.10760720819234848
0.21906504034996033
0.32650110125541687
0.405863493680954
0.4799693524837494
0.5507165789604187
0.6170748472213745
0.6780670881271362
0.7327719330787659
0.7803129553794861
0.8198503255844116
0.8505682349205017
0.871653139591217
0.8822901844978333
0.8816487193107605
0.8688870072364807
0.8431699872016907
0.8037176728248596
0.7498652338981628
0.6811800003051758
0.5975956320762634
0.499574214220047
0.3882681131362915
0.26562923192977905
0.13442736864089966
-0.001856006681919098
-0.1392880082130432
-0.2738187909126282
-0.4016575515270233
-0.5195712447166443
-0.6250761151313782
-0.7164830565452576
-0.7928325533866882
-0.8537492156028748
-0.8992837071418762
-0.9297489523887634
-0.9455905556678772
-0.9472951292991638
-0.9353340268135071
-0.9101402163505554
-0.8721121549606323
-0.8216440677642822
-0.7591692805290222
-0.6852176189422607
-0.600483238697052
-0.5058789849281311
-0.40258994698524475
-0.29209184646606445
-0.17614701390266418
-0.05675777047872543
0.06389967352151871
0.18357864022254944
0.3000549376010895
0.41123202443122864
0.515211284160614
0.6103495955467224
0.6952803134918213
0.7689096331596375
0.8303921818733215
0.8790886402130127
0.9145241379737854
0.9363417029380798
0.9442704916000366
0.9381099343299866
0.9177312254905701
0.8830995559692383
0.8343226313591003
0.7717077732086182
0.6958313584327698
0.6076002717018127
0.5083024501800537
0.399607390165329
0.2835319936275482
0.16235767304897308
0.03850988298654556
-0.08557037264108658
-0.2075415551662445
-0.32524654269218445
-0.43675872683525085
-0.5403943061828613
-0.6347019076347351
-0.7184430360794067
-0.7905676960945129
-0.850196361541748
-0.8966020345687866
-0.9292005896568298
-0.9475409388542175
-0.9513108134269714
-0.9403327107429504
-0.9145877957344055
-0.8742337226867676
-0.8196389079093933
-0.7514187693595886
-0.670464277267456
-0.5779770612716675
-0.4754697382450104
-0.3647560775279999
-0.2479023039340973
-0.1271563172340393
-0.004851333796977997
0.11670433729887009
0.23532634973526
0.34904783964157104
0.41202351450920105
0.4891870319843292
0.5634622573852539
0.6337183117866516
0.6988665461540222
0.7578566074371338
0.809680163860321
0.8533520102500916
0.887901246547699
0.9123541116714478
0.9257141351699829
0.9269616603851318
0.9150581359863281
0.88897305727005
0.8477463126182556
0.7905858159065247
0.7170084118843079
0.6270264387130737
0.5213396549224854
0.401510626077652
0.27005547285079956
0.1303877830505371
-0.013399429619312286
-0.15689638257026672
-0.29581159353256226
-0.42635753750801086
-0.5455242395401001
-0.6511796116828918
-0.7420309782028198
-0.817482054233551
-0.8774517178535461
-0.9221870303153992
-0.95211261510849
-0.9677104353904724
-0.969447672367096
-0.9577335715293884
-0.9329087734222412
-0.8952596783638
-0.8450536131858826
-0.7825875282287598
-0.7082574963569641
-0.6226256489753723
-0.5264967679977417
-0.42097848653793335
-0.30752047896385193
-0.18791639804840088
-0.06426446884870529
0.061116211116313934
0.18579748272895813
0.3073709309101105
0.4235653281211853
0.5323421359062195
0.631950318813324
0.720949113368988
0.7981898784637451
0.8627843260765076
0.9140530824661255
0.9514771699905396
0.9746501445770264
0.9832490682601929
0.9770192503929138
0.9557875990867615
0.9194974899291992
0.8682637810707092
0.8024457097053528
0.722719132900238
0.6301339268684387
0.5261498093605042
0.41262370347976685
0.2917468547821045
0.16594552993774414
0.03775136172771454
-0.09032642096281052
-0.21591630578041077
-0.3368590176105499
-0.4512465298175812
-0.5574297308921814
-0.6539983153343201
-0.7397540807723999
-0.8136902451515198
-0.8749566674232483
-0.9228447079658508
-0.9567741751670837
-0.9762778878211975
-0.9810047745704651
-0.9707208275794983
-0.9453255534172058
-0.9048805236816406
-0.8496415615081787
-0.78011155128479
-0.6970810890197754
-0.6016814112663269
-0.4954055845737457
-0.3801158368587494
-0.25800374150276184
-0.13152435421943665
-0.0032772496342658997
0.12411504238843918
0.24815192818641663
0.3665790855884552
0.4102427363395691
0.48971548676490784
0.5668222308158875
0.6403355002403259
0.7090473771095276
0.7717790007591248
0.8273739218711853
0.8746920824050903
0.9125944375991821
0.9399294257164001
0.9555168747901917
0.9581493139266968
0.9466041922569275
0.919691264629364
0.8763347268104553
0.8157081007957458
0.7374054789543152
0.6416648030281067
0.5295696258544922
0.4032030403614044
0.26566335558891296
0.12091297656297684
-0.02656049281358719
-0.1721833050251007
-0.31174764037132263
-0.4417509138584137
-0.5595793128013611
-0.6635107398033142
-0.7526087164878845
-0.8265325427055359
-0.8853551149368286
-0.9293884634971619
-0.9590520262718201
-0.9747777581214905
-0.976952850818634
-0.9658952355384827
-0.9418491721153259
-0.9050074219703674
-0.8555490374565125
-0.7936931252479553
-0.7197631001472473
-0.6342633366584778
-0.5379449129104614
-0.4318794012069702
-0.3174901008605957
-0.19655779004096985
-0.07118860632181168
0.05627169460058212
0.18335363268852234
0.3075880706310272
0.4266342222690582
0.5383747816085815
0.6409775614738464
0.7329135537147522
0.8129462003707886
0.8800914883613586
0.9335718750953674
0.9727666974067688
0.9971745610237122
1.0063865184783936
1.0000829696655273
0.9780568480491638
0.9402640461921692
0.8868879675865173
0.8184133768081665
0.7356955409049988
0.6400002837181091
0.5329993963241577
0.4167267382144928
0.2934809625148773
0.16571956872940063
0.03593100607395172
-0.09346059709787369
-0.22017940878868103
-0.34215113520622253
-0.4575253427028656
-0.5646815896034241
-0.662220299243927
-0.7489423155784607
-0.8238314390182495
-0.8860281705856323
-0.9348142743110657
-0.9695945382118225
-0.9898874163627625
-0.9953187108039856
-0.9856213927268982
-0.9606528878211975
-0.9204179644584656
-0.8651058077812195
-0.7951411604881287
-0.7112392783164978
-0.614459753036499
-0.5062536001205444
-0.3884779214859009
-0.26337796449661255
-0.1335221529006958
-0.0016845539212226868
0.1292935311794281
0.256671279668808
0.37796133756637573
0.40086495876312256
0.48178502917289734
0.5608962178230286
0.6368744969367981
0.7083969712257385
0.7741450667381287
0.8328097462654114
0.8830795288085938