# vtk DataFile Version 3.0
2D PINN Solution
ASCII
DATASET STRUCTURED_GRID
DIMENSIONS 100 100 1
POINTS 10000 float
-1.0 -1.0 0.0
-0.9797979797979798 -1.0 0.0
-0.9595959595959596 -1.0 0.0
-0.9393939393939394 -1.0 0.0
-0.9191919191919192 -1.0 0.0
-0.898989898989899 -1.0 0.0
-0.8787878787878788 -1.0 0.0
-0.8585858585858586 -1.0 0.0
-0.8383838383838383 -1.0 0.0
-0.8181818181818181 -1.0 0.0
-0.797979797979798 -1.0 0.0
-0.7777777777777778 -1.0 0.0
-0.7575757575757576 -1.0 0.0
-0.7373737373737373 -1.0 0.0
-0.7171717171717171 -1.0 0.0
-0.696969696969697 -1.0 0.0
-0.6767676767676767 -1.0 0.0
-0.6565656565656566 -1.0 0.0
-0.6363636363636364 -1.0 0.0
-0.6161616161616161 -1.0 0.0
-0.5959595959595959 -1.0 0.0
-0.5757575757575757 -1.0 0.0
-0.5555555555555556 -1.0 0.0
-0.5353535353535352 -1.0 0.0
-0.5151515151515151 -1.0 0.0
-0.4949494949494949 -1.0 0.0
-0.4747474747474747 -1.0 0.0
-0.4545454545454545 -1.0 0.0
-0.43434343434343425 -1.0 0.0
-0.41414141414141414 -1.0 0.0
-0.3939393939393939 -1.0 0.0
-0.3737373737373737 -1.0 0.0
-0.3535353535353535 -1.0 0.0
-0.33333333333333326 -1.0 0.0
-0.31313131313131304 -1.0 0.0
-0.2929292929292928 -1.0 0.0
-0.2727272727272727 -1.0 0.0
-0.2525252525252525 -1.0 0.0
-0.23232323232323226 -1.0 0.0
-0.21212121212121204 -1.0 0.0
-0.19191919191919182 -1.0 0.0
-0.1717171717171716 -1.0 0.0
-0.1515151515151515 -1.0 0.0
-0.13131313131313127 -1.0 0.0
-0.11111111111111105 -1.0 0.0
-0.09090909090909083 -1.0 0.0
-0.07070707070707061 -1.0 0.0
-0.050505050505050386 -1.0 0.0
-0.030303030303030276 -1.0 0.0
-0.010101010101010055 -1.0 0.0
0.010101010101010166 -1.0 0.0
0.030303030303030498 -1.0 0.0
0.05050505050505061 -1.0 0.0
0.07070707070707072 -1.0 0.0
0.09090909090909105 -1.0 0.0
0.11111111111111116 -1.0 0.0
0.1313131313131315 -1.0 0.0
0.1515151515151516 -1.0 0.0
0.1717171717171717 -1.0 0.0
0.19191919191919204 -1.0 0.0
0.21212121212121215 -1.0 0.0
0.2323232323232325 -1.0 0.0
0.2525252525252526 -1.0 0.0
0.27272727272727293 -1.0 0.0
0.29292929292929304 -1.0 0.0
0.31313131313131315 -1.0 0.0
0.3333333333333335 -1.0 0.0
0.3535353535353536 -1.0 0.0
0.3737373737373739 -1.0 0.0
0.39393939393939403 -1.0 0.0
0.41414141414141437 -1.0 0.0
0.4343434343434345 -1.0 0.0
0.4545454545454546 -1.0 0.0
0.4747474747474749 -1.0 0.0
0.49494949494949503 -1.0 0.0
0.5151515151515154 -1.0 0.0
0.5353535353535355 -1.0 0.0
0.5555555555555556 -1.0 0.0
0.5757575757575759 -1.0 0.0
0.595959595959596 -1.0 0.0
0.6161616161616164 -1.0 0.0
0.6363636363636365 -1.0 0.0
0.6565656565656568 -1.0 0.0
0.6767676767676769 -1.0 0.0
0.696969696969697 -1.0 0.0
0.7171717171717173 -1.0 0.0
0.7373737373737375 -1.0 0.0
0.7575757575757578 -1.0 0.0
0.7777777777777779 -1.0 0.0
0.7979797979797982 -1.0 0.0
0.8181818181818183 -1.0 0.0
0.8383838383838385 -1.0 0.0
0.8585858585858588 -1.0 0.0
0.8787878787878789 -1.0 0.0
0.8989898989898992 -1.0 0.0
0.9191919191919193 -1.0 0.0
0.9393939393939394 -1.0 0.0
0.9595959595959598 -1.0 0.0
0.9797979797979799 -1.0 0.0
1.0 -1.0 0.0
-1.0 -0.9797979797979798 0.0
-0.9797979797979798 -0.9797979797979798 0.0
-0.9595959595959596 -0.9797979797979798 0.0
-0.9393939393939394 -0.9797979797979798 0.0
-0.9191919191919192 -0.9797979797979798 0.0
-0.898989898989899 -0.9797979797979798 0.0
-0.8787878787878788 -0.9797979797979798 0.0
-0.8585858585858586 -0.9797979797979798 0.0
-0.8383838383838383 -0.9797979797979798 0.0
-0.8181818181818181 -0.9797979797979798 0.0
-0.797979797979798 -0.9797979797979798 0.0
-0.7777777777777778 -0.9797979797979798 0.0
-0.7575757575757576 -0.9797979797979798 0.0
-0.7373737373737373 -0.9797979797979798 0.0
-0.7171717171717171 -0.9797979797979798 0.0
-0.696969696969697 -0.9797979797979798 0.0
-0.6767676767676767 -0.9797979797979798 0.0
-0.6565656565656566 -0.9797979797979798 0.0
-0.6363636363636364 -0.9797979797979798 0.0
-0.6161616161616161 -0.9797979797979798 0.0
-0.5959595959595959 -0.9797979797979798 0.0
-0.5757575757575757 -0.9797979797979798 0.0
-0.5555555555555556 -0.9797979797979798 0.0
-0.5353535353535352 -0.9797979797979798 0.0
-0.5151515151515151 -0.9797979797979798 0.0
-0.4949494949494949 -0.9797979797979798 0.0
-0.4747474747474747 -0.9797979797979798 0.0
-0.4545454545454545 -0.9797979797979798 0.0
-0.43434343434343425 -0.9797979797979798 0.0
-0.41414141414141414 -0.9797979797979798 0.0
-0.3939393939393939 -0.9797979797979798 0.0
-0.3737373737373737 -0.9797979797979798 0.0
-0.3535353535353535 -0.9797979797979798 0.0
-0.33333333333333326 -0.9797979797979798 0.0
-0.31313131313131304 -0.9797979797979798 0.0
-0.2929292929292928 -0.9797979797979798 0.0
-0.2727272727272727 -0.9797979797979798 0.0
-0.2525252525252525 -0.9797979797979798 0.0
-0.23232323232323226 -0.9797979797979798 0.0
-0.21212121212121204 -0.9797979797979798 0.0
-0.19191919191919182 -0.9797979797979798 0.0
-0.1717171717171716 -0.9797979797979798 0.0
-0.1515151515151515 -0.9797979797979798 0.0
-0.13131313131313127 -0.9797979797979798 0.0
-0.11111111111111105 -0.9797979797979798 0.0
-0.09090909090909083 -0.9797979797979798 0.0
-0.07070707070707061 -0.9797979797979798 0.0
-0.050505050505050386 -0.9797979797979798 0.0
-0.030303030303030276 -0.9797979797979798 0.0
-0.010101010101010055 -0.9797979797979798 0.0
0.010101010101010166 -0.9797979797979798 0.0
0.030303030303030498 -0.9797979797979798 0.0
0.05050505050505061 -0.9797979797979798 0.0
0.07070707070707072 -0.9797979797979798 0.0
0.09090909090909105 -0.9797979797979798 0.0
0.11111111111111116 -0.9797979797979798 0.0
0.1313131313131315 -0.9797979797979798 0.0
0.1515151515151516 -0.9797979797979798 0.0
0.1717171717171717 -0.9797979797979798 0.0
0.19191919191919204 -0.9797979797979798 0.0
0.21212121212121215 -0.9797979797979798 0.0
0.2323232323232325 -0.9797979797979798 0.0
0.2525252525252526 -0.9797979797979798 0.0
0.27272727272727293 -0.9797979797979798 0.0
0.29292929292929304 -0.9797979797979798 0.0
0.31313131313131315 -0.9797979797979798 0.0
0.3333333333333335 -0.9797979797979798 0.0
0.3535353535353536 -0.9797979797979798 0.0
0.3737373737373739 -0.9797979797979798 0.0
0.39393939393939403 -0.9797979797979798 0.0
0.41414141414141437 -0.9797979797979798 0.0
0.4343434343434345 -0.9797979797979798 0.0
0.4545454545454546 -0.9797979797979798 0.0
0.4747474747474749 -0.9797979797979798 0.0
0.49494949494949503 -0.9797979797979798 0.0
0.5151515151515154 -0.9797979797979798 0.0
0.5353535353535355 -0.9797979797979798 0.0
0.5555555555555556 -0.9797979797979798 0.0
0.5757575757575759 -0.9797979797979798 0.0
0.595959595959596 -0.9797979797979798 0.0
0.6161616161616164 -0.9797979797979798 0.0
0.6363636363636365 -0.9797979797979798 0.0
0.6565656565656568 -0.9797979797979798 0.0
0.6767676767676769 -0.9797979797979798 0.0
0.696969696969697 -0.9797979797979798 0.0
0.7171717171717173 -0.9797979797979798 0.0
0.7373737373737375 -0.9797979797979798 0.0
0.7575757575757578 -0.9797979797979798 0.0
0.7777777777777779 -0.9797979797979798 0.0
0.7979797979797982 -0.9797979797979798 0.0
0.8181818181818183 -0.9797979797979798 0.0
0.8383838383838385 -0.9797979797979798 0.0
0.8585858585858588 -0.9797979797979798 0.0
0.8787878787878789 -0.9797979797979798 0.0
0.8989898989898992 -0.9797979797979798 0.0
0.9191919191919193 -0.9797979797979798 0.0
0.9393939393939394 -0.9797979797979798 0.0
0.9595959595959598 -0.9797979797979798 0.0
0.9797979797979799 -0.9797979797979798 0.0
1.0 -0.9797979797979798 0.0
-1.0 -0.9595959595959596 0.0
-0.9797979797979798 -0.9595959595959596 0.0
-0.9595959595959596 -0.9595959595959596 0.0
-0.9393939393939394 -0.9595959595959596 0.0
-0.9191919191919192 -0.9595959595959596 0.0
-0.898989898989899 -0.9595959595959596 0.0
-0.8787878787878788 -0.9595959595959596 0.0
-0.8585858585858586 -0.9595959595959596 0.0
-0.8383838383838383 -0.9595959595959596 0.0
-0.8181818181818181 -0.9595959595959596 0.0
-0.797979797979798 -0.9595959595959596 0.0
-0.7777777777777778 -0.9595959595959596 0.0
-0.7575757575757576 -0.9595959595959596 0.0
-0.7373737373737373 -0.9595959595959596 0.0
-0.7171717171717171 -0.9595959595959596 0.0
-0.696969696969697 -0.9595959595959596 0.0
-0.6767676767676767 -0.9595959595959596 0.0
-0.6565656565656566 -0.9595959595959596 0.0
-0.6363636363636364 -0.9595959595959596 0.0
-0.6161616161616161 -0.9595959595959596 0.0
-0.5959595959595959 -0.9595959595959596 0.0
-0.5757575757575757 -0.9595959595959596 0.0
-0.5555555555555556 -0.9595959595959596 0.0
-0.5353535353535352 -0.9595959595959596 0.0
-0.5151515151515151 -0.9595959595959596 0.0
-0.4949494949494949 -0.9595959595959596 0.0
-0.4747474747474747 -0.9595959595959596 0.0
-0.4545454545454545 -0.9595959595959596 0.0
-0.43434343434343425 -0.9595959595959596 0.0
-0.41414141414141414 -0.9595959595959596 0.0
-0.3939393939393939 -0.9595959595959596 0.0
-0.3737373737373737 -0.9595959595959596 0.0
-0.3535353535353535 -0.9595959595959596 0.0
-0.33333333333333326 -0.9595959595959596 0.0
-0.31313131313131304 -0.9595959595959596 0.0
-0.2929292929292928 -0.9595959595959596 0.0
-0.2727272727272727 -0.9595959595959596 0.0
-0.2525252525252525 -0.9595959595959596 0.0
-0.23232323232323226 -0.9595959595959596 0.0
-0.21212121212121204 -0.9595959595959596 0.0
-0.19191919191919182 -0.9595959595959596 0.0
-0.1717171717171716 -0.9595959595959596 0.0
-0.1515151515151515 -0.9595959595959596 0.0
-0.13131313131313127 -0.9595959595959596 0.0
-0.11111111111111105 -0.9595959595959596 0.0
-0.09090909090909083 -0.9595959595959596 0.0
-0.07070707070707061 -0.9595959595959596 0.0
-0.050505050505050386 -0.9595959595959596 0.0
-0.030303030303030276 -0.9595959595959596 0.0
-0.010101010101010055 -0.9595959595959596 0.0
0.010101010101010166 -0.9595959595959596 0.0
0.030303030303030498 -0.9595959595959596 0.0
0.05050505050505061 -0.9595959595959596 0.0
0.07070707070707072 -0.9595959595959596 0.0
0.09090909090909105 -0.9595959595959596 0.0
0.11111111111111116 -0.9595959595959596 0.0
0.1313131313131315 -0.9595959595959596 0.0
0.1515151515151516 -0.9595959595959596 0.0
0.1717171717171717 -0.9595959595959596 0.0
0.19191919191919204 -0.9595959595959596 0.0
0.21212121212121215 -0.9595959595959596 0.0
[...]
POINT_DATA 10000
SCALARS u float 1
LOOKUP_TABLE default
0.9145224690437317
0.9392172694206238
0.948739767074585
0.9436558485031128
0.9246591329574585
0.8924771547317505
0.847788393497467
0.7911800742149353
0.7231387495994568
0.6440951824188232
0.5545071959495544
0.45499393343925476
0.34647291898727417
0.23030003905296326
0.10835321992635727
-0.01696733385324478
-0.1428455412387848
-0.26624879240989685
-0.38419124484062195
-0.4939831793308258
-0.5934234261512756
-0.6809056401252747
-0.7554130554199219
-0.8164493441581726
-0.8639153242111206
-0.8979681134223938
-0.9188893437385559
-0.9269714951515198
-0.9224390387535095
-0.9053947329521179
-0.8758121728897095
-0.833562433719635
-0.7784939408302307
-0.7105401158332825
-0.6298688054084778
-0.5370356440544128
-0.43310490250587463
-0.3197074234485626
-0.19902247190475464
-0.07366213947534561
0.05349675565958023
0.1795225739479065
0.3016214668750763
0.41729041934013367
0.524408757686615
0.6212713122367859
0.7065636515617371
0.7793136835098267
0.8388286232948303
0.8846396803855896
0.9164568185806274
0.9341393113136292
0.937676727771759
0.9271783232688904
0.9028624892234802
0.86505526304245
0.8141928315162659
0.7508353590965271
0.6756924986839294
0.5896562933921814
0.49384239315986633
0.38961610198020935
0.2785920202732086
0.16260746121406555
0.04364236444234848
-0.07626038044691086
-0.1950872242450714
-0.31090956926345825
-0.4219137132167816
-0.5264059901237488
-0.622799813747406
-0.7096162438392639
-0.7854854464530945
-0.8491618037223816
-0.8995454907417297
-0.9357041716575623
-0.9568997025489807
-0.9626030325889587
-0.9525184035301208
-0.9266065955162048
-0.885109543800354
-0.8285783529281616
-0.7578978538513184
-0.6742938160896301
-0.57933109998703
-0.4748769700527191
-0.36303433775901794
-0.24605533480644226
-0.12623509764671326
-0.0058014169335365295
0.11317414790391922
0.22885560989379883
0.3396817743778229
0.44438645243644714
0.5419946908950806
0.6317958831787109
0.7133153080940247
0.7862772941589355
0.8505623936653137
0.9061670899391174
0.9387220740318298
0.9644072651863098
0.9750346541404724
0.9710566401481628
0.9530102014541626
0.9214436411857605
0.8768555521965027
0.8196592330932617
0.7501993775367737
0.668802797794342
0.5758975148200989
0.47215259075164795
0.35864731669425964
0.23700633645057678
0.10945438593626022
-0.021232612431049347
-0.15190735459327698
-0.27931782603263855
-0.4004092514514923
-0.5125706791877747
-0.6137929558753967
-0.7027023434638977
-0.7785075306892395
-0.8408777117729187
-0.8897971510887146
-0.9254239201545715
-0.9479605555534363
-0.9575609564781189
-0.9542638659477234
-0.9379705786705017
-0.9084563255310059
-0.8654312491416931
-0.8086392879486084
-0.7379990816116333
-0.6537615656852722
-0.556654155254364
-0.4479834735393524
-0.3296518623828888
-0.20409134030342102
-0.07410868257284164
0.0573098286986351
0.18719416856765747
0.3127647638320923
0.4315577447414398
0.5414806008338928
0.6408361196517944
0.7282947897911072
0.8028643131256104
0.8638400435447693
0.9107533097267151
0.9433357119560242
0.9614874124526978
0.9652421474456787
0.9547549486160278
0.9302778244018555
0.8921508193016052
0.8407999873161316
0.7767407298088074
0.7006020545959473
0.6131594777107239
0.5153867602348328
0.4085063636302948
0.2940264642238617
0.17374977469444275
0.04974304884672165
-0.07574779540300369
-0.20040130615234375
-0.32192978262901306
-0.43817129731178284
-0.5471494793891907
-0.6470948457717896
-0.7364593148231506
-0.813907265663147
-0.8783164620399475
-0.9287647008895874
-0.9645231366157532
-0.9850509762763977
-0.9899821877479553
-0.9791319966316223
-0.9525037407875061
-0.9103067517280579
-0.8529984354972839
-0.7813135385513306
-0.6963101625442505
-0.599391758441925
-0.49230560660362244
-0.3771144449710846
-0.25611612200737
-0.13175100088119507
-0.006472595036029816
0.11737573891878128
0.237662672996521
0.35255539417266846
0.4605570137500763
0.5605279207229614
0.6516560912132263
0.7334265112876892
0.8055718541145325
0.8680148720741272
0.9208212494850159
0.9479987025260925
0.9748554825782776
0.9868979454040527
0.9843963980674744
0.9676851630210876
0.937109649181366
0.8929858803749084
0.8355898857116699
0.7651785016059875
0.6820677518844604
0.5867523550987244
0.48006299138069153
0.3633174002170563
0.23843052983283997
0.10791980475187302
-0.025206811726093292
-0.15768247842788696
-0.2862711548805237
-0.4080512821674347
-0.520626962184906
-0.6222180128097534
-0.7116526961326599
-0.7882664799690247
-0.8517757058143616
-0.902134120464325
-0.9393985867500305
-0.9636246562004089
-0.9747868180274963
-0.9727280735969543
-0.9571641087532043
-0.927715003490448
-0.8839934468269348
-0.8257290720939636
-0.7529237270355225
-0.6660019159317017
-0.5659387707710266
-0.45430126786231995
-0.3332243859767914
-0.2052842676639557
-0.07333030551671982
0.05970097333192825
0.19095084071159363
0.317760169506073
0.4377492666244507
0.548862874507904
0.649380624294281
0.7379243969917297
0.8134413361549377
0.8751801252365112
0.9226596355438232
0.9556290507316589
0.9740269780158997
0.9779418706893921
0.9675779938697815
0.9432247281074524
0.9052422642707825
0.8540463447570801
0.7901192307472229
0.7140230536460876
0.6264379620552063
0.5282129645347595
0.4204292893409729
0.30446314811706543
0.18202969431877136
0.055186815559864044
-0.07370913773775101
-0.20211443305015564
-0.3274340033531189
-0.4471741020679474
-0.5590615272521973
-0.6611284017562866
-0.7517402768135071
-0.8295992016792297
-0.8937108516693115
-0.9433490633964539
-0.9780095219612122
-0.9973676800727844
-1.0012493133544922
-0.9896052479743958
-0.9625055193901062
-0.9201604723930359
-0.8629490733146667
-0.7914725542068481
-0.7066093683242798
-0.6095658540725708
-0.5019112825393677
-0.3855792284011841
-0.2628186047077179
-0.1361095905303955
-0.008041135966777802
0.11883441358804703
0.24213775992393494
0.3597767651081085
0.4700222611427307
0.5715427994728088
0.6633924841880798
0.744981586933136
0.8160105347633362
0.876413881778717
0.9262984395027161
0.9428196549415588
0.9709790945053101
0.9846359491348267
0.9838314652442932
0.96866774559021
0.9392780661582947
0.8958176970481873
0.8384726047515869
0.76749587059021
0.6832970380783081
0.5865607857704163
0.4783789813518524
0.36036983132362366
0.23471462726593018
0.10410883277654648
-0.028405077755451202
-0.15967926383018494
-0.2867202162742615
-0.40691059827804565
-0.5181443691253662
-0.6188663840293884
-0.7080252766609192
-0.7849799990653992
-0.849377453327179
-0.9010335206985474
-0.9398265480995178
-0.9656112790107727
-0.9781598448753357
-0.9771342873573303
-0.9621042609214783
-0.9326027631759644
-0.888236939907074
-0.8288252949714661
-0.7545515894889832
-0.6660962700843811
-0.5647056102752686
-0.45218226313591003
-0.330790251493454
-0.20311006903648376
-0.07186988741159439
0.060193561017513275
0.19043725728988647
0.3163810074329376
0.43575331568717957
0.5465222597122192
0.6469274759292603
0.7355114817619324
0.8111357092857361
0.8729808926582336
0.9205318093299866
0.953544020652771
0.9719878435134888
0.9760023951530457
0.9658412933349609
0.9418365359306335
0.9043676257133484
0.8538562655448914
0.7907601594924927
0.7155976891517639
0.628978431224823
0.5316586494445801
0.42460498213768005
0.3090686500072479
0.18664538860321045
0.059322379529476166
-0.07054582983255386
-0.20031124353408813
-0.32718443870544434
-0.44841036200523376
-0.5614548325538635
-0.6641463041305542
-0.7547494769096375
-0.8319754600524902
-0.8949396014213562
-0.9430961012840271
-0.9761566519737244
-0.9940149188041687
-0.9966886639595032
-0.9842774271965027
-0.9569448828697205
-0.9149267077445984
-0.8585607409477234
-0.7883398532867432
-0.7049788236618042
-0.6094852089881897
-0.5032178163528442
-0.3879171311855316
-0.26569417119026184
-0.13896724581718445
-0.010351978242397308
0.11748730391263962
0.24199247360229492
0.3608529269695282
0.47211772203445435
0.5742520689964294
0.6661458611488342
0.7470892667770386
0.816709578037262
0.8749125599861145
0.9218094348907471
0.9237459301948547
0.9532224535942078
0.9685423374176025
0.9694889187812805
0.9559152722358704
0.9277560710906982
0.8850427865982056
0.8279369473457336
0.7567873001098633
0.6722126603126526
0.5751993060112
0.467183917760849
0.35009220242500305
0.22630226612091064
0.09852208942174911
-0.03038976341485977
-0.15763047337532043
-0.28063371777534485
-0.3971927762031555
-0.5055211782455444
-0.6042444109916687
-0.6923521757125854
-0.7691215872764587
-0.83403080701828
-0.8866736888885498
-0.9266871809959412
-0.9536920189857483
-0.967257559299469
-0.9668925404548645
-0.95208340883255
-0.9223688840866089
-0.8774561882019043
-0.8173643946647644
-0.7425488233566284
-0.6539846062660217
-0.5531710982322693
-0.4420527517795563
-0.32288575172424316
-0.1980934739112854
-0.07014108449220657
0.05853324383497238
0.18556413054466248
0.3086744248867035
0.42569833993911743
0.5346232652664185
0.633642852306366
0.7212130427360535
0.7961010336875916
0.8574103116989136
0.9045752882957458
0.9373330473899841
0.955668032169342
0.9597499966621399
0.9498752951622009
0.9264128804206848
0.8897736072540283
0.8403899073600769
0.7787192463874817
0.7052574753761292
0.6205803155899048
0.5253860950469971
0.4205631911754608
0.30726170539855957
0.18696346879005432
0.06153928488492966
-0.0667448416352272
-0.1952732801437378
-0.3212025463581085
-0.44165143370628357
-0.5539120435714722
-0.655643105506897
-0.7449924945831299
-0.8206422924995422
-0.8817711472511292
-0.9279676079750061
-0.9591206908226013
-0.9753163456916809
-0.9767544865608215
-0.9636842608451843
-0.9363756775856018
-0.8951177000999451
-0.840242326259613
-0.7721739411354065
-0.6914994120597839
-0.5990468859672546
-0.49595895409584045
-0.38375040888786316
-0.2643231451511383
-0.13993853330612183
-0.013126485049724579
0.11344780772924423
0.23714110255241394
0.35549890995025635
0.46637943387031555
0.5680462718009949
0.6592012643814087
0.7389740347862244
0.8068742156028748
0.8627287745475769
0.9066153168678284
0.8913838267326355
0.9220229387283325
0.9388756155967712
0.9414495229721069
0.9293601512908936
0.9023703932762146
0.8604418635368347
0.8037933707237244
0.7329710125923157
0.6489117741584778
0.5529858469963074
0.44700363278388977
0.3331510126590729
0.21387317776679993
0.0917094275355339
-0.030862607061862946
-0.15155407786369324
-0.2683410942554474
-0.3794769048690796
-0.4834842383861542
-0.5791217088699341
-0.665345311164856
-0.7412733435630798
-0.8061392307281494
-0.8592565059661865
-0.8999821543693542
-0.9276872873306274
-0.9417497515678406
-0.94157475233078
-0.9266433715820312
-0.8966028690338135
-0.8513767123222351
-0.7912800908088684
-0.7170962691307068
-0.6300874352455139
-0.5319250226020813
-0.4245623052120209
-0.3100939393043518
-0.19065046310424805
-0.0683404728770256
0.05474863946437836
0.17654040455818176
0.2949583828449249
0.4079457223415375
0.5135177373886108
0.6098361611366272
0.695289671421051
0.768564760684967
0.8286846876144409
0.875021755695343
0.907267153263092
0.9253875613212585
0.9295546412467957
0.9200813174247742
0.8973677754402161
0.861854612827301
0.8140023350715637
0.7542869448661804
0.6832162737846375
0.6013617515563965
0.5094040036201477
0.4081909954547882
0.2988063395023346
0.18262958526611328
0.06139972060918808
-0.06276885420084
-0.18740281462669373
-0.30976322293281555
-0.4270048439502716
-0.5363803505897522
-0.6354547739028931
-0.7222781777381897
-0.7954633831977844
-0.854186475276947
-0.8980969786643982
-0.9272003769874573
-0.9417281746864319
-0.9420310854911804
-0.9284984469413757
-0.9015119671821594
-0.8614365458488464
-0.8086302280426025
-0.7434937953948975
-0.6665292978286743
-0.5784204602241516
-0.48011401295661926
-0.3728879988193512
-0.25839468836784363
-0.13865894079208374
-0.016021154820919037
0.10696958750486374
0.22770172357559204
0.3436596095561981
0.4525735676288605
0.5525295734405518
0.6420319080352783
0.7200185656547546
0.7858338952064514
0.8391812443733215
0.880061149597168
0.846349835395813
0.8777954578399658
0.8958529829978943
0.8997660875320435
0.888937771320343
0.8630067706108093
0.8219364285469055
0.7660929560661316
0.6963093280792236
0.6139126420021057
0.5206848382949829
0.41876688599586487
0.31049761176109314
0.19823062419891357
0.08417236059904099
-0.029719538986682892
-0.14176109433174133
-0.2505013346672058
-0.3546530306339264
-0.4530206024646759
-0.544454038143158
-0.6278356909751892
-0.7020755410194397
-0.7661282420158386
-0.8189937472343445
-0.8597336411476135
-0.8874722123146057
-0.9014326333999634
-0.9009708762168884
-0.8856516480445862
-0.8553310036659241
-0.8102443814277649
-0.7510663270950317
-0.678912341594696
-0.5952646732330322
-0.501844048500061
-0.4004676640033722
-0.29294076561927795
-0.1810157597064972
-0.06641074270009995
0.049138449132442474
0.1638321876525879
0.27578750252723694
0.3830660879611969
0.4837397634983063
0.5759762525558472
0.6581389904022217
0.7288605570793152
0.7870968580245972
0.832148015499115
0.8636372685432434
0.8814722895622253
0.8857893347740173
0.8768869638442993
0.8551730513572693
0.8211131691932678
0.7752033472061157
0.7179631590843201
0.6499400734901428
0.5717385411262512
0.48405689001083374
0.3877386152744293
0.2838287055492401
0.17362341284751892
0.05872382968664169
-0.05894274264574051
-0.17713171243667603
-0.29333534836769104
-0.4049013555049896
-0.5092016458511353
-0.60383141040802
-0.6867901682853699
-0.7566139698028564
-0.8124083876609802
-0.8538029789924622
-0.8808338046073914
-0.8938130736351013
-0.8931964635848999
-0.8794881701469421
-0.8531802296638489
-0.8147249221801758
-0.7645366191864014
-0.7030293345451355
-0.6306673884391785
-0.5480336546897888
-0.455911785364151
-0.35535648465156555
-0.24775144457817078
-0.13483217358589172
-0.01866520196199417
0.0984252318739891
0.21397268772125244
0.3255108892917633
0.43072089552879333
0.5275592803955078
0.6143438220024109
0.6898055672645569
0.7530902624130249
0.8037347197532654
0.841619610786438
0.7892680168151855
0.8209388256072998
0.8396795392036438
0.8444989919662476
0.8346359133720398
0.8096752762794495
0.769663393497467
0.7151916027069092
0.6474445462226868
0.5681487917900085
0.4794475734233856
0.3837015926837921
0.2832432687282562
0.18018710613250732
0.07628711313009262
-0.027073420584201813
-0.12881335616111755
-0.22802481055259705
-0.32383373379707336
-0.4152926802635193
-0.501327633857727
-0.5807351469993591
-0.652217447757721
-0.7144464254379272
-0.7661163210868835
-0.8060035109519958
-0.8330184817314148
-0.8462710976600647
-0.8451423645019531
-0.8293576836585999
-0.7990598082542419
-0.7548493146896362
-0.6977631449699402
-0.6291887760162354
-0.5507146120071411
-0.46397754549980164
-0.37053874135017395
-0.2718402147293091
-0.16923871636390686
-0.06407996267080307
0.042217813432216644
0.14810729026794434
0.2518991231918335
0.3518047034740448
0.44599655270576477
0.5327093601226807
0.6103307604789734
0.6774815917015076
0.7330731749534607
0.776330828666687
0.8067917823791504
0.8242745399475098
0.8288379907608032
0.8207278847694397
0.8003267049789429
0.7681100964546204
0.7246122360229492
0.6704074740409851
0.6061102151870728
0.5323883295059204
0.44999077916145325
0.359785258769989
0.26279759407043457
0.16025486588478088
0.05361788719892502
-0.055398471653461456
-0.16482505202293396
-0.2724759876728058
-0.37601736187934875
-0.4730859696865082
-0.5614398121833801
-0.639125645160675
-0.7046276330947876
-0.7569469809532166
-0.7956156134605408
-0.820611298084259
-0.8322415351867676
-0.8310088515281677
-0.8174959421157837
-0.7922866940498352
-0.7559253573417664
-0.7089025378227234
-0.6516785621643066
-0.5847163200378418
-0.5085446238517761
-0.4238221347332001
-0.3314066231250763
-0.2324167788028717
-0.12827658653259277
-0.020717404782772064
0.08824916929006577
0.19640794396400452
0.3014511168003082
0.4011061489582062
0.49326983094215393
0.5761155486106873
0.648172914981842
0.7083733677864075
0.7560515999794006
0.790935218334198
0.7207759618759155
0.7518675923347473
0.7705905437469482
0.7757752537727356
0.7665712237358093
0.7425917983055115
0.7040416598320007
0.6518007516860962
0.5874010324478149
0.5129091739654541
0.4307021200656891
0.34318163990974426
0.25251784920692444
0.16045889258384705
0.06826799362897873
-0.02321843057870865
-0.11344832926988602
-0.20196902751922607
-0.28825244307518005
-0.3715648949146271
-0.45090726017951965
-0.525019645690918
-0.5924376845359802
-0.6515936255455017
-0.7009197473526001
-0.738954484462738
-0.7644498944282532
-0.7764673829078674
-0.7744758725166321
-0.7584235072135925
-0.7287721037864685
-0.6864708065986633
-0.6328479051589966
-0.5694443583488464
-0.4978238642215729
-0.41942283511161804
-0.3354860842227936
-0.24709060788154602
-0.15523692965507507
-0.06095407158136368
0.034608371555805206
0.13013657927513123
0.2241496443748474
0.3150462508201599
0.4011642634868622
0.4808705151081085
0.552636981010437
0.6151239275932312
0.6672249436378479
0.7081036567687988
0.7372010350227356
0.7542254328727722
0.7591248154640198
0.7520559430122375
0.7333441972732544
0.7034459710121155
0.6629199385643005
0.6123968958854675
0.552571713924408
0.4841969311237335
0.4080951511859894
0.32517722249031067
0.23646259307861328
0.14311173558235168
0.046442173421382904
-0.05205806344747543
-0.15072700381278992
-0.24774327874183655
-0.34116992354393005
-0.4290120303630829
-0.5093132853507996
-0.5802806615829468
-0.6404151916503906
-0.6886285543441772
-0.7243077754974365
-0.747292697429657
-0.7578025460243225
-0.7563106417655945
-0.7434255480766296
-0.7197975516319275
-0.6860517859458923
-0.6427653431892395
-0.5904606580734253
-0.5296357274055481
-0.46079888939857483
-0.38452211022377014
-0.30150115489959717
-0.21260830760002136
-0.11895235627889633
-0.02190432697534561
0.07689715176820755
0.17557251453399658
0.27207064628601074
0.3642709255218506
0.4500972330570221
0.5276392698287964
0.5952659249305725
0.6516967415809631
0.6960567235946655
0.7278919816017151
0.6415536999702454
0.6710596680641174
0.6889229416847229
0.6938808560371399
0.6850842237472534
0.6622626781463623
0.6258461475372314
0.5769990086555481
0.5175412893295288
0.44973400235176086
0.3759917616844177
0.29857325553894043
0.21933358907699585
0.13960057497024536
0.06017246097326279
-0.018568195402622223
-0.09647098928689957
-0.17342045903205872
-0.24915120005607605
-0.32311010360717773
-0.39438751339912415
-0.46171942353248596
-0.523555338382721
-0.5781764388084412
-0.6238387227058411
-0.6589341759681702
-0.6821345090866089
-0.692531168460846
-0.6897347569465637
-0.6739319562911987
-0.6458704471588135
-0.6067519187927246
-0.5580606460571289
-0.5013396143913269
-0.4380030333995819
-0.3692261874675751
-0.29594406485557556
-0.21892398595809937
-0.13888996839523315
-0.05662944167852402
0.026931248605251312
0.11070243269205093
0.19343680143356323
0.2737659513950348
0.3502574861049652
0.42147621512413025
0.4860473871231079
0.5427163243293762
0.5903981924057007
0.6282157897949219
0.6555209755897522
0.6719027161598206
0.6771822571754456
0.6713991761207581
0.6547888517379761
0.6277604699134827
0.5908696055412292
0.5447878837585449
0.49028345942497253
0.4281972348690033
0.35943278670310974
0.28494980931282043
0.20576834678649902
0.1229768916964531
0.03774193674325943
-0.04868393391370773
-0.1349550485610962
-0.21963486075401306
-0.30121034383773804
-0.3781086504459381
-0.44874313473701477
-0.5115823745727539
-0.5652433037757874
-0.608607292175293
-0.6409203410148621
-0.6618416905403137
-0.6714254021644592
-0.6700380444526672
-0.6582520008087158
-0.6367368102073669
-0.6061781048774719
-0.5672295093536377
-0.5204880833625793
-0.46650198101997375
-0.4057855010032654
-0.3388572037220001
-0.26628002524375916
-0.18871363997459412
-0.10696656256914139
-0.022046901285648346
0.06480415910482407
0.15209823846817017
0.23812109231948853
0.3209955096244812
0.3987698256969452
0.4695408344268799
0.5315738916397095
0.5834197402000427
0.6239994168281555
0.6526678800582886
0.5523613691329956
0.5791259407997131
0.595205545425415
0.5993587374687195
0.5908429622650146
0.5695788264274597
0.5362371802330017
0.492215096950531
0.43947264552116394
0.38026323914527893
0.3168211579322815
0.2510841190814972
0.18450036644935608