# vtk DataFile Version 3.0
2D PINN Solution
ASCII
DATASET STRUCTURED_GRID
DIMENSIONS 100 100 1
POINTS 10000 float
-1.0 -1.0 0.0
-0.9797979797979798 -1.0 0.0
-0.9595959595959596 -1.0 0.0
-0.9393939393939394 -1.0 0.0
-0.9191919191919192 -1.0 0.0
-0.898989898989899 -1.0 0.0
-0.8787878787878788 -1.0 0.0
-0.8585858585858586 -1.0 0.0
-0.8383838383838383 -1.0 0.0
-0.8181818181818181 -1.0 0.0
-0.797979797979798 -1.0 0.0
-0.7777777777777778 -1.0 0.0
-0.7575757575757576 -1.0 0.0
-0.7373737373737373 -1.0 0.0
-0.7171717171717171 -1.0 0.0
-0.696969696969697 -1.0 0.0
-0.6767676767676767 -1.0 0.0
-0.6565656565656566 -1.0 0.0
-0.6363636363636364 -1.0 0.0
-0.6161616161616161 -1.0 0.0
-0.5959595959595959 -1.0 0.0
-0.5757575757575757 -1.0 0.0
-0.5555555555555556 -1.0 0.0
-0.5353535353535352 -1.0 0.0
-0.5151515151515151 -1.0 0.0
-0.4949494949494949 -1.0 0.0
-0.4747474747474747 -1.0 0.0
-0.4545454545454545 -1.0 0.0
-0.43434343434343425 -1.0 0.0
-0.41414141414141414 -1.0 0.0
-0.3939393939393939 -1.0 0.0
-0.3737373737373737 -1.0 0.0
-0.3535353535353535 -1.0 0.0
-0.33333333333333326 -1.0 0.0
-0.31313131313131304 -1.0 0.0
-0.2929292929292928 -1.0 0.0
-0.2727272727272727 -1.0 0.0
-0.2525252525252525 -1.0 0.0
-0.23232323232323226 -1.0 0.0
-0.21212121212121204 -1.0 0.0
-0.19191919191919182 -1.0 0.0
-0.1717171717171716 -1.0 0.0
-0.1515151515151515 -1.0 0.0
-0.13131313131313127 -1.0 0.0
-0.11111111111111105 -1.0 0.0
-0.09090909090909083 -1.0 0.0
-0.07070707070707061 -1.0 0.0
-0.050505050505050386 -1.0 0.0
-0.030303030303030276 -1.0 0.0
-0.010101010101010055 -1.0 0.0
0.010101010101010166 -1.0 0.0
0.030303030303030498 -1.0 0.0
0.05050505050505061 -1.0 0.0
0.07070707070707072 -1.0 0.0
0.09090909090909105 -1.0 0.0
0.11111111111111116 -1.0 0.0
0.1313131313131315 -1.0 0.0
0.1515151515151516 -1.0 0.0
0.1717171717171717 -1.0 0.0
0.19191919191919204 -1.0 0.0
0.21212121212121215 -1.0 0.0
0.2323232323232325 -1.0 0.0
0.2525252525252526 -1.0 0.0
0.27272727272727293 -1.0 0.0
0.29292929292929304 -1.0 0.0
0.31313131313131315 -1.0 0.0
0.3333333333333335 -1.0 0.0
0.3535353535353536 -1.0 0.0
0.3737373737373739 -1.0 0.0
0.39393939393939403 -1.0 0.0
0.41414141414141437 -1.0 0.0
0.4343434343434345 -1.0 0.0
0.4545454545454546 -1.0 0.0
0.4747474747474749 -1.0 0.0
0.49494949494949503 -1.0 0.0
0.5151515151515154 -1.0 0.0
0.5353535353535355 -1.0 0.0
0.5555555555555556 -1.0 0.0
0.5757575757575759 -1.0 0.0
0.595959595959596 -1.0 0.0
0.6161616161616164 -1.0 0.0
0.6363636363636365 -1.0 0.0
0.6565656565656568 -1.0 0.0
0.6767676767676769 -1.0 0.0
0.696969696969697 -1.0 0.0
0.7171717171717173 -1.0 0.0
0.7373737373737375 -1.0 0.0
0.7575757575757578 -1.0 0.0
0.7777777777777779 -1.0 0.0
0.7979797979797982 -1.0 0.0
0.8181818181818183 -1.0 0.0
0.8383838383838385 -1.0 0.0
0.8585858585858588 -1.0 0.0
0.8787878787878789 -1.0 0.0
0.8989898989898992 -1.0 0.0
0.9191919191919193 -1.0 0.0
0.9393939393939394 -1.0 0.0
0.9595959595959598 -1.0 0.0
0.9797979797979799 -1.0 0.0
1.0 -1.0 0.0
-1.0 -0.9797979797979798 0.0
-0.9797979797979798 -0.9797979797979798 0.0
-0.9595959595959596 -0.9797979797979798 0.0
-0.9393939393939394 -0.9797979797979798 0.0
-0.9191919191919192 -0.9797979797979798 0.0
-0.898989898989899 -0.9797979797979798 0.0
-0.8787878787878788 -0.9797979797979798 0.0
-0.8585858585858586 -0.9797979797979798 0.0
-0.8383838383838383 -0.9797979797979798 0.0
-0.8181818181818181 -0.9797979797979798 0.0
-0.797979797979798 -0.9797979797979798 0.0
-0.7777777777777778 -0.9797979797979798 0.0
-0.7575757575757576 -0.9797979797979798 0.0
-0.7373737373737373 -0.9797979797979798 0.0
-0.7171717171717171 -0.9797979797979798 0.0
-0.696969696969697 -0.9797979797979798 0.0
-0.6767676767676767 -0.9797979797979798 0.0
-0.6565656565656566 -0.9797979797979798 0.0
-0.6363636363636364 -0.9797979797979798 0.0
-0.6161616161616161 -0.9797979797979798 0.0
-0.5959595959595959 -0.9797979797979798 0.0
-0.5757575757575757 -0.9797979797979798 0.0
-0.5555555555555556 -0.9797979797979798 0.0
-0.5353535353535352 -0.9797979797979798 0.0
-0.5151515151515151 -0.9797979797979798 0.0
-0.4949494949494949 -0.9797979797979798 0.0
-0.4747474747474747 -0.9797979797979798 0.0
-0.4545454545454545 -0.9797979797979798 0.0
-0.43434343434343425 -0.9797979797979798 0.0
-0.41414141414141414 -0.9797979797979798 0.0
-0.3939393939393939 -0.9797979797979798 0.0
-0.3737373737373737 -0.9797979797979798 0.0
-0.3535353535353535 -0.9797979797979798 0.0
-0.33333333333333326 -0.9797979797979798 0.0
-0.31313131313131304 -0.9797979797979798 0.0
-0.2929292929292928 -0.9797979797979798 0.0
-0.2727272727272727 -0.9797979797979798 0.0
-0.2525252525252525 -0.9797979797979798 0.0
-0.23232323232323226 -0.9797979797979798 0.0
-0.21212121212121204 -0.9797979797979798 0.0
-0.19191919191919182 -0.9797979797979798 0.0
-0.1717171717171716 -0.9797979797979798 0.0
-0.1515151515151515 -0.9797979797979798 0.0
-0.13131313131313127 -0.9797979797979798 0.0
-0.11111111111111105 -0.9797979797979798 0.0
-0.09090909090909083 -0.9797979797979798 0.0
-0.07070707070707061 -0.9797979797979798 0.0
-0.050505050505050386 -0.9797979797979798 0.0
-0.030303030303030276 -0.9797979797979798 0.0
-0.010101010101010055 -0.9797979797979798 0.0
0.010101010101010166 -0.9797979797979798 0.0
0.030303030303030498 -0.9797979797979798 0.0
0.05050505050505061 -0.9797979797979798 0.0
0.07070707070707072 -0.9797979797979798 0.0
0.09090909090909105 -0.9797979797979798 0.0
0.11111111111111116 -0.9797979797979798 0.0
0.1313131313131315 -0.9797979797979798 0.0
0.1515151515151516 -0.9797979797979798 0.0
0.1717171717171717 -0.9797979797979798 0.0
0.19191919191919204 -0.9797979797979798 0.0
0.21212121212121215 -0.9797979797979798 0.0
0.2323232323232325 -0.9797979797979798 0.0
0.2525252525252526 -0.9797979797979798 0.0
0.27272727272727293 -0.9797979797979798 0.0
0.29292929292929304 -0.9797979797979798 0.0
0.31313131313131315 -0.9797979797979798 0.0
0.3333333333333335 -0.9797979797979798 0.0
0.3535353535353536 -0.9797979797979798 0.0
0.3737373737373739 -0.9797979797979798 0.0
0.39393939393939403 -0.9797979797979798 0.0
0.41414141414141437 -0.9797979797979798 0.0
0.4343434343434345 -0.9797979797979798 0.0
0.4545454545454546 -0.9797979797979798 0.0
0.4747474747474749 -0.9797979797979798 0.0
0.49494949494949503 -0.9797979797979798 0.0
0.5151515151515154 -0.9797979797979798 0.0
0.5353535353535355 -0.9797979797979798 0.0
0.5555555555555556 -0.9797979797979798 0.0
0.5757575757575759 -0.9797979797979798 0.0
0.595959595959596 -0.9797979797979798 0.0
0.6161616161616164 -0.9797979797979798 0.0
0.6363636363636365 -0.9797979797979798 0.0
0.6565656565656568 -0.9797979797979798 0.0
0.6767676767676769 -0.9797979797979798 0.0
0.696969696969697 -0.9797979797979798 0.0
0.7171717171717173 -0.9797979797979798 0.0
0.7373737373737375 -0.9797979797979798 0.0
0.7575757575757578 -0.9797979797979798 0.0
0.7777777777777779 -0.9797979797979798 0.0
0.7979797979797982 -0.9797979797979798 0.0
0.8181818181818183 -0.9797979797979798 0.0
0.8383838383838385 -0.9797979797979798 0.0
0.8585858585858588 -0.9797979797979798 0.0
0.8787878787878789 -0.9797979797979798 0.0
0.8989898989898992 -0.9797979797979798 0.0
0.9191919191919193 -0.9797979797979798 0.0
0.9393939393939394 -0.9797979797979798 0.0
0.9595959595959598 -0.9797979797979798 0.0
0.9797979797979799 -0.9797979797979798 0.0
1.0 -0.9797979797979798 0.0
-1.0 -0.9595959595959596 0.0
-0.9797979797979798 -0.9595959595959596 0.0
-0.9595959595959596 -0.9595959595959596 0.0
-0.9393939393939394 -0.9595959595959596 0.0
-0.9191919191919192 -0.9595959595959596 0.0
-0.898989898989899 -0.9595959595959596 0.0
-0.8787878787878788 -0.9595959595959596 0.0
-0.8585858585858586 -0.9595959595959596 0.0
-0.8383838383838383 -0.9595959595959596 0.0
-0.8181818181818181 -0.9595959595959596 0.0
-0.797979797979798 -0.9595959595959596 0.0
-0.7777777777777778 -0.9595959595959596 0.0
-0.7575757575757576 -0.9595959595959596 0.0
-0.7373737373737373 -0.9595959595959596 0.0
-0.7171717171717171 -0.9595959595959596 0.0
-0.696969696969697 -0.9595959595959596 0.0
-0.6767676767676767 -0.9595959595959596 0.0
-0.6565656565656566 -0.9595959595959596 0.0
-0.6363636363636364 -0.9595959595959596 0.0
-0.6161616161616161 -0.9595959595959596 0.0
-0.5959595959595959 -0.9595959595959596 0.0
-0.5757575757575757 -0.9595959595959596 0.0
-0.5555555555555556 -0.9595959595959596 0.0
-0.5353535353535352 -0.9595959595959596 0.0
-0.5151515151515151 -0.9595959595959596 0.0
-0.4949494949494949 -0.9595959595959596 0.0
-0.4747474747474747 -0.9595959595959596 0.0
-0.4545454545454545 -0.9595959595959596 0.0
-0.43434343434343425 -0.9595959595959596 0.0
-0.41414141414141414 -0.9595959595959596 0.0
-0.3939393939393939 -0.9595959595959596 0.0
-0.3737373737373737 -0.9595959595959596 0.0
-0.3535353535353535 -0.9595959595959596 0.0
-0.33333333333333326 -0.9595959595959596 0.0
-0.31313131313131304 -0.9595959595959596 0.0
-0.2929292929292928 -0.9595959595959596 0.0
-0.2727272727272727 -0.9595959595959596 0.0
-0.2525252525252525 -0.9595959595959596 0.0
-0.23232323232323226 -0.9595959595959596 0.0
-0.21212121212121204 -0.9595959595959596 0.0
-0.19191919191919182 -0.9595959595959596 0.0
-0.1717171717171716 -0.9595959595959596 0.0
-0.1515151515151515 -0.9595959595959596 0.0
-0.13131313131313127 -0.9595959595959596 0.0
-0.11111111111111105 -0.9595959595959596 0.0
-0.09090909090909083 -0.9595959595959596 0.0
-0.07070707070707061 -0.9595959595959596 0.0
-0.050505050505050386 -0.9595959595959596 0.0
-0.030303030303030276 -0.9595959595959596 0.0
-0.010101010101010055 -0.9595959595959596 0.0
0.010101010101010166 -0.9595959595959596 0.0
0.030303030303030498 -0.9595959595959596 0.0
0.05050505050505061 -0.9595959595959596 0.0
0.07070707070707072 -0.9595959595959596 0.0
0.09090909090909105 -0.9595959595959596 0.0
0.11111111111111116 -0.9595959595959596 0.0
0.1313131313131315 -0.9595959595959596 0.0
0.1515151515151516 -0.9595959595959596 0.0
0.1717171717171717 -0.9595959595959596 0.0
0.19191919191919204 -0.9595959595959596 0.0
0.21212121212121215 -0.9595959595959596 0.0
[...]
POINT_DATA 10000
SCALARS u float 1
LOOKUP_TABLE default
0.9056658148765564
0.8644066452980042
0.8084165453910828
0.7382169365882874
0.6547081470489502
0.5592252016067505
0.4535385072231293
0.33980873227119446
0.22046715021133423
0.09806021302938461
-0.024911262094974518
-0.14612418413162231
-0.26351630687713623
-0.3753049671649933
-0.479984849691391
-0.5762964487075806
-0.6631874442100525
-0.7397701740264893
-0.8052853941917419
-0.8590530157089233
-0.900438129901886
-0.9288222193717957
-0.9435907006263733
-0.9441493153572083
-0.9299719929695129
-0.9006866812705994
-0.856188952922821
-0.7967556118965149
-0.7231297492980957
-0.6365405917167664
-0.5386418700218201
-0.4313843548297882
-0.3168770372867584
-0.19727420806884766
-0.0747087374329567
0.0487128421664238
0.17090055346488953
0.28977447748184204
0.40327537059783936
0.5094196200370789
0.6063680052757263
0.6925023198127747
0.7665019035339355
0.8273777365684509
0.8744871616363525
0.9075080752372742
0.9263922572135925
0.931299090385437
0.9225342273712158
0.9004881978034973
0.8655948042869568
0.8183079361915588
0.7590999007225037
0.6884721517562866
0.6069903373718262
0.5153279304504395
0.41432738304138184
0.3050614595413208
0.1889055371284485
0.0675894096493721
-0.05677672475576401
-0.18172436952590942
-0.30451473593711853
-0.4222983419895172
-0.5323207974433899
-0.6321335434913635
-0.7197670340538025
-0.7938151955604553
-0.8534253239631653
-0.8982256054878235
-0.9281970858573914
-0.9435524344444275
-0.944625198841095
-0.9317920804023743
-0.9054272770881653
-0.8658878207206726
-0.813529908657074
-0.7487537264823914
-0.6720626950263977
-0.584143340587616
-0.4859462082386017
-0.37875428795814514
-0.2642272114753723
-0.14439448714256287
-0.021600820124149323
0.10159977525472641
0.2225928008556366
0.3388630449771881
0.4481426775455475
0.548517644405365
0.6384946703910828
0.7170130610466003
0.7834198474884033
0.837417483329773
0.8790046572685242
0.908420205116272
0.9260923266410828
0.9326157569885254
0.928725004196167
0.9153005480766296
0.8668373227119446
0.8264452815055847
0.7712467312812805
0.7020377516746521
0.6201046705245972
0.5271892547607422
0.42540401220321655
0.317075252532959
0.20456469058990479
0.09010373800992966
-0.024314023554325104
-0.1369623839855194
-0.24635496735572815
-0.35117658972740173
-0.4502144753932953
-0.5423113107681274
-0.6263464093208313
-0.7012375593185425
-0.7659426331520081
-0.8194748759269714
-0.8608983159065247
-0.8893477320671082
-0.9040407538414001
-0.9043275713920593
-0.8897547125816345
-0.8601496815681458
-0.8157124519348145
-0.7570798397064209
-0.6853336095809937
-0.601938784122467
-0.5086144208908081
-0.4071929156780243
-0.29950210452079773
-0.18731972575187683
-0.07238627225160599
0.04355136305093765
0.15868714451789856
0.2711392343044281
0.3789718747138977
0.4802566468715668
0.5731604099273682
0.6560372710227966
0.7275093197822571
0.7865201234817505
0.8323528170585632
0.8646169304847717
0.8832067847251892
0.8882473111152649
0.8800274729728699
0.8589473366737366
0.8254649043083191
0.7800723910331726
0.7232815623283386
0.6556338667869568
0.577727198600769
0.49025264382362366
0.39404723048210144
0.2901485860347748
0.17984694242477417
0.06473905593156815
-0.05324947088956833
-0.171871155500412
-0.28861603140830994
-0.4008231461048126
-0.5058512687683105
-0.601282000541687
-0.6850950121879578
-0.7558043003082275
-0.8124945759773254
-0.8547702431678772
-0.8826470971107483
-0.8964186310768127
-0.8965261578559875
-0.8834629654884338
-0.8577116131782532
-0.8197212219238281
-0.7699041366577148
-0.7086736559867859
-0.6364973783493042
-0.5539618730545044
-0.4618566334247589
-0.36124280095100403
-0.2535105049610138
-0.14040526747703552
-0.0239986851811409
0.09338010102510452
0.20926108956336975
0.32117798924446106
0.4268118143081665
0.5241210460662842
0.6114280223846436
0.6874656081199646
0.7513806819915771
0.8027110695838928
0.841333270072937
0.8674258589744568
0.8814164400100708
0.883956253528595
0.8758924603462219
0.8582528829574585
0.8140372633934021
0.7746880054473877
0.7208182215690613
0.6535629630088806
0.5746073126792908
0.486063152551651
0.3902721405029297
0.28957805037498474
0.1861165463924408
0.0816844031214714
-0.022292830049991608
-0.12469372898340225
-0.22458189725875854
-0.3210626542568207
-0.41318291425704956
-0.4998686611652374
-0.5799224972724915
-0.6520573496818542
-0.7149536609649658
-0.7673127055168152
-0.8079134821891785
-0.8356649279594421
-0.8496667742729187
-0.8492802977561951
-0.8342023491859436
-0.8045415878295898
-0.7608616948127747
-0.7041684985160828
-0.635828971862793
-0.5574352145195007
-0.47063639760017395
-0.37702277302742004
-0.27806153893470764
-0.1751319169998169
-0.06959254294633865
0.0371350422501564
0.14350301027297974
0.24783101677894592
0.3483278453350067
0.4431677758693695
0.5305792689323425
0.6089400053024292
0.676859438419342
0.7332323789596558
0.7772703766822815
0.8084952235221863
0.8267136812210083
0.8319728970527649
0.8245101571083069
0.8047014474868774
0.7730139493942261
0.7299754619598389
0.6761545538902283
0.6121575236320496
0.5386465787887573
0.4563616216182709
0.36616382002830505
0.269074946641922
0.16631653904914856
0.05934982746839523
-0.05010741204023361
-0.16008150577545166
-0.26837536692619324
-0.3726431429386139
-0.47050586342811584
-0.5597053170204163
-0.6382696628570557
-0.7046616673469543
-0.7578653693199158
-0.7973889708518982
-0.8231935501098633
-0.835568368434906
-0.8350024819374084
-0.822070837020874
-0.7973480820655823
-0.7613754868507385
-0.7146439552307129
-0.6576125025749207
-0.5907500386238098
-0.5145882964134216
-0.42979270219802856
-0.33723127841949463
-0.23802945017814636
-0.13361892104148865
-0.02573946863412857
0.08359073847532272
0.19215184450149536
0.2976377606391907
0.397774875164032
0.4904630780220032
0.5738785862922668
0.646553099155426
0.7074200510978699
0.7558133602142334
0.7914586067199707
0.8144325613975525
0.8251355290412903
0.8242558836936951
0.8127313852310181
0.79173344373703
0.7474660277366638
0.7095332741737366
0.657811164855957
0.5937851071357727
0.5194828510284424
0.4372605085372925
0.3495233356952667
0.25846418738365173
0.16587117314338684
0.07305388897657394
-0.019108839333057404
-0.11002910882234573
-0.19923290610313416
-0.2861829400062561
-0.3701475262641907
-0.4501347839832306
-0.524894654750824
-0.5929771065711975
-0.6528211832046509
-0.7028624415397644
-0.7416369318962097
-0.7678841948509216
-0.7806454300880432
-0.7793599367141724
-0.7639396786689758
-0.7348080277442932
-0.692884087562561
-0.6394777894020081
-0.5761305093765259
-0.5044257044792175
-0.425829142332077
-0.3416142165660858
-0.2528832256793976
-0.16065090894699097
-0.06594818085432053
0.030076853930950165
0.12611795961856842
0.2207012176513672
0.31222397089004517
0.3990221917629242
0.47945210337638855
0.5519770383834839
0.615240216255188
0.6681196689605713
0.7097666263580322
0.7396066784858704
0.7573367953300476
0.7628966569900513
0.7564317584037781
0.7382612824440002
0.708834707736969
0.6687012910842896
0.6184878945350647
0.5588799118995667
0.49062299728393555
0.4145331084728241
0.3315129280090332
0.24258264899253845
0.14889881014823914
0.05178292840719223
-0.047270648181438446
-0.14658895134925842
-0.24433669447898865
-0.3385601043701172
-0.4272458255290985
-0.5084202885627747
-0.5802717208862305
-0.6412841081619263
-0.6903530955314636
-0.7268461585044861
-0.7505877614021301
-0.7617819309234619
-0.760890543460846
-0.7485145330429077
-0.7252967357635498
-0.6918613314628601
-0.6487818360328674
-0.5965866446495056
-0.5357758402824402
-0.4668649137020111
-0.3904323875904083
-0.30718228220939636
-0.21799787878990173
-0.1239958181977272
-0.026553533971309662
0.07268144935369492
0.17182549834251404
0.26882848143577576
0.3615679442882538
0.44796934723854065
0.5261285305023193
0.5944117903709412
0.6515416502952576
0.6966421604156494
0.7292501330375671
0.7493196725845337
0.7571844458580017
0.7535400390625
0.7393941283226013
0.7160324454307556
0.6676124930381775
0.6317266821861267
0.583278477191925
0.5240427851676941
0.4562560021877289
0.3823288381099701
0.3045378625392914
0.2247757613658905
0.1444162130355835
0.06430237740278244
-0.015144385397434235
-0.09374875575304031
-0.171381413936615
-0.24777477979660034
-0.3223820924758911
-0.3943081796169281
-0.46230068802833557
-0.5248194336891174
-0.5801518559455872
-0.6265532970428467
-0.6624025702476501
-0.686349630355835
-0.697454571723938
-0.6952909827232361
-0.6800065636634827
-0.6523151397705078
-0.6134005188941956
-0.5647454857826233
-0.5079129338264465
-0.44435134530067444
-0.37526994943618774
-0.30163151025772095
-0.22422286868095398
-0.14377164840698242
-0.061059869825839996
0.022995106875896454
0.10731194168329239
0.19064736366271973
0.27163317799568176
0.34882986545562744
0.42079079151153564
0.4861281216144562
0.5435711741447449
0.5920196175575256
0.630583643913269
0.6586012244224548
0.6756511926651001
0.6815441250801086
0.676312267780304
0.6601831316947937
0.6335579752922058
0.5969846844673157
0.5511282086372375
0.4967488944530487
0.4346804618835449
0.36582064628601074
0.29112550616264343
0.21161428093910217
0.12837713956832886
0.04258788377046585
-0.04449070245027542
-0.1314985156059265
-0.21698319911956787
-0.29940810799598694
-0.377182275056839
-0.4487017095088959
-0.5124160647392273
-0.5669270157814026
-0.6111029982566833
-0.6441747546195984
-0.6657888293266296
-0.675986111164093
-0.6751239895820618
-0.6637664437294006
-0.6425798535346985
-0.6122474074363708
-0.5734221339225769
-0.526706337928772
-0.47265198826789856
-0.411780446767807
-0.3446190357208252
-0.27173930406570435
-0.193808913230896
-0.1116466149687767
-0.026266567409038544
0.06108257919549942
0.14890804886817932
0.23549455404281616
0.3189637362957001
0.39736413955688477
0.4687941372394562
0.5315216779708862
0.5840933322906494
0.6254305839538574
0.654877245426178
0.6722311973571777
0.6777340769767761
0.6720494031906128
0.6562174558639526
0.6315998435020447
0.5753389596939087
0.5424028635025024
0.49862393736839294
0.4459320306777954
0.38657012581825256
0.3227877914905548
0.25655215978622437
0.18935582041740417
0.12214978784322739
0.05538877099752426
-0.010834254324436188
-0.07660955935716629
-0.14202314615249634
-0.20698466897010803
-0.2710943818092346
-0.33356598019599915
-0.3932132422924042
-0.4485114514827728
-0.49771931767463684
-0.5390428900718689
-0.5708321332931519
-0.5917559862136841
-0.6009702086448669
-0.5982137322425842
-0.5838399529457092
-0.558751106262207
-0.524243175983429
-0.4817892611026764
-0.4328188896179199
-0.3785523474216461
-0.31993567943573
-0.2576729357242584
-0.19233092665672302
-0.12444698065519333
-0.054624997079372406
0.016409702599048615
0.08779590576887131
0.15854334831237793
0.22756436467170715
0.29370206594467163
0.35576698184013367
0.4125809073448181
0.46301281452178955
0.50602787733078
0.5407259464263916
0.5663772225379944
0.5824518203735352
0.5886315107345581
0.5848184823989868
0.5711315870285034
0.547894299030304
0.5156184434890747
0.4749790132045746
0.4267795979976654
0.3719232678413391
0.3113757073879242
0.24613666534423828
0.17721828818321228
0.10563882440328598
0.03241672366857529
-0.04142004996538162
-0.11482394486665726
-0.18671804666519165
-0.25598567724227905
-0.321465402841568
-0.38195672631263733
-0.43624189496040344
-0.4831361472606659
-0.5215712189674377
-0.5506981015205383
-0.5699902176856995
-0.5792843103408813
-0.5787649750709534
-0.5688897967338562
-0.5502864718437195
-0.523661196231842
-0.4897250831127167
-0.4491451680660248
-0.4025307893753052
-0.35042452812194824
-0.293318510055542
-0.23168280720710754
-0.16600042581558228
-0.0968194380402565
-0.024811886250972748
0.04916956275701523
0.12404414266347885
0.19848310947418213
0.2709274888038635
0.33964207768440247
0.4028259813785553
0.4587319791316986
0.5057993531227112
0.5427839159965515
0.568849503993988
0.5836271643638611
0.5872321724891663
0.5802617073059082
0.5637352466583252
0.5390428304672241
0.4719430208206177
0.4430917501449585
0.4055425822734833
0.36118191480636597
0.31203728914260864
0.2599896490573883
0.2065611183643341
0.15280234813690186
0.09928663820028305
0.04618891328573227
-0.006586797535419464
-0.05925316363573074
-0.11198548227548599
-0.16478192806243896
-0.21734479069709778
-0.2690104842185974
-0.31872865557670593
-0.3651060461997986
-0.4065263569355011
-0.4413163959980011
-0.4679519236087799
-0.48525264859199524
-0.4925336539745331
-0.48969516158103943
-0.47720667719841003
-0.4559965431690216
-0.42727696895599365
-0.39232733845710754
-0.35231703519821167
-0.30819547176361084
-0.26067978143692017
-0.21030589938163757
-0.1575201153755188
-0.10275987535715103
-0.04650988429784775
0.010667882859706879
0.06813210994005203
0.12517032027244568
0.1810026466846466
0.23479604721069336
0.2856694459915161
0.33269909024238586
0.37494969367980957
0.4114973843097687
0.44147616624832153
0.46412286162376404
0.47882094979286194
0.4851376712322235
0.4828513562679291
0.4719606339931488
0.45269331336021423
0.4254924952983856
0.3909989893436432
0.3500172197818756
0.3034729063510895
0.25235939025878906
0.19769108295440674
0.14045444130897522
0.08158256858587265
0.021937750279903412
-0.03768310695886612
-0.09653312712907791
-0.15388944745063782
-0.20902934670448303
-0.2612009346485138
-0.3096075654029846
-0.3533917963504791
-0.3916478455066681
-0.4234655201435089
-0.4480121433734894
-0.46464255452156067
-0.47299399971961975
-0.4730389416217804
-0.46506115794181824
-0.4495883285999298
-0.4272911846637726
-0.398899108171463
-0.3651236295700073
-0.32661694288253784
-0.2839430570602417
-0.23757168650627136
-0.18788743019104004
-0.13521739840507507
-0.07987693697214127
-0.022228635847568512
0.037242062389850616
0.09785748273134232
0.15869572758674622
0.21856221556663513
0.276023805141449
0.32947298884391785
0.3772484064102173
0.4177728593349457
0.44970664381980896
0.47206413745880127
0.4843188524246216
0.48644137382507324
0.47891470789909363
0.46269458532333374
0.43913647532463074
0.35917922854423523
0.3356744945049286
0.3059171438217163
0.27153271436691284
0.23411688208580017
0.19503077864646912
0.1552773118019104
0.1154753789305687
0.07589610666036606
0.03654556721448898
-0.002733685076236725
-0.04215357452630997
-0.0818735733628273
-0.12189999967813492
-0.16199690103530884
-0.2016299068927765
-0.23994377255439758
-0.2757977247238159
-0.3078612983226776
-0.3347685933113098
-0.3552952706813812
-0.3685287535190582
-0.3739980161190033
-0.3717122972011566
-0.36212313175201416
-0.3459986746311188
-0.3242693841457367
-0.2978724539279938
-0.2676401138305664
-0.2342541515827179
-0.19825652241706848
-0.16010355949401855
-0.12020500749349594
-0.07896270602941513
-0.03678461164236069
0.00591403990983963
0.04871206730604172
0.09117739647626877
0.1328580379486084
0.1732635498046875
0.21184292435646057
0.2479710876941681
0.280949205160141
0.31001707911491394
0.3343936502933502
0.3533289134502411
0.3661602735519409
0.3723667860031128
0.3716188073158264
0.36379891633987427
0.34902697801589966
0.3276527523994446
0.3002401888370514
0.26753804087638855
0.23042920231819153
0.1898789405822754
0.14686059951782227
0.1023014709353447
0.057032398879528046
0.01175784319639206
-0.03294328600168228
-0.07659899443387985
-0.11881073564291
-0.1592107117176056
-0.197422057390213
-0.23301950097084045
-0.2655033767223358
-0.29427820444107056
-0.3186659514904022
-0.3379462957382202
-0.3514482378959656
-0.35866811871528625
-0.35936665534973145
-0.3536141514778137
-0.34176743030548096
-0.3244018852710724
-0.30220457911491394
-0.2758951485157013
-0.24613940715789795
-0.2135094404220581
-0.17845001816749573
-0.14127272367477417
-0.10217254608869553
-0.06126429885625839
-0.01864955574274063
0.025511763989925385
0.07091190665960312
0.1170225515961647
0.16304072737693787
0.20788326859474182
0.25022393465042114
0.2885940968990326
0.321501761674881
0.3475981056690216
0.3658132255077362
0.3754872977733612
0.3764478862285614
0.36903226375579834
0.3540688753128052
0.3328229486942291
0.2392263412475586
0.2222978174686432
0.20170831680297852
0.17862117290496826
0.1540440320968628
0.12872907519340515
0.10315116494894028
0.07754214853048325
0.0519520565867424
0.02631383389234543
0.0005035325884819031
-0.025597937405109406
-0.05205611139535904
-0.07882518321275711
-0.1056971624493599
-0.13227242231369019
-0.15794208645820618
-0.18192127346992493
-0.2033182978630066
-0.22124341130256653
-0.23492613434791565
-0.24382874369621277
-0.24770057201385498
-0.24658510088920593
-0.2407640516757965
-0.23067542910575867
-0.2168237566947937
-0.19971054792404175
-0.17980560660362244
-0.15754783153533936
-0.1333616077899933
-0.10767532140016556
-0.08091262727975845
-0.053473539650440216
-0.025709830224514008
0.0020985081791877747
0.02974005788564682
0.05706029385328293
0.08392559736967087
0.11018561571836472
0.13562855124473572
0.15994444489479065
0.18270468711853027
0.2033635377883911
0.22128069400787354
0.23577764630317688
0.24619507789611816
0.2519647479057312
0.2526730000972748
0.24810072779655457
0.23825520277023315
0.2233697772026062
0.20389515161514282
0.18046918511390686
0.15386828780174255
0.12494946271181107
0.09458457678556442
0.06358938664197922
0.0326647087931633
0.00235544890165329
-0.026958592236042023
-0.05505112558603287
-0.08180419355630875
-0.10716269165277481
-0.13107827305793762
-0.15346115827560425
-0.17413941025733948
-0.19282981753349304
-0.20912176370620728
-0.22248613834381104
-0.23233196139335632
-0.23810261487960815
-0.23939552903175354
-0.23606130480766296
-0.22824349999427795
-0.2163480520248413
-0.20095893740653992
-0.18273931741714478
-0.16233417391777039
-0.14029204845428467
-0.11702228337526321
-0.09276313334703445
-0.06759554892778397
-0.04147208482027054
-0.014274932444095612
0.014107637107372284
0.04368855804204941
0.0743013545870781
0.10552623122930527
0.13666072487831116
0.1667252480983734
0.19452974200248718
0.21877700090408325
0.23820868134498596
0.2517583966255188
0.25868308544158936
0.2586763799190521
0.25191569328308105
0.23906615376472473
0.22122889757156372
0.11459901183843613
0.10526006668806076
0.09484641999006271
0.08391743153333664
0.072809599339962
0.06165411323308945
0.05043017119169235
0.039042405784130096
0.02738787978887558
0.015390954911708832
0.00302230566740036
-0.009694792330265045
-0.022686250507831573
-0.035819269716739655
-0.04889757186174393
-0.06166095286607742
-0.07379237562417984
-0.08494467288255692
-0.09477690607309341
-0.10300076752901077
-0.10940689593553543
-0.1138797178864479
-0.11636880785226822
-0.11686743050813675
-0.11537080258131027
-0.11187631636857986
-0.10638881474733353
-0.09895386546850204
-0.08968966454267502
-0.07882004231214523
-0.06667742878198624
-0.05367804318666458
-0.040264226496219635
-0.026836462318897247
-0.013692118227481842
-0.0009856745600700378
0.011265240609645844
0.023160003125667572
0.03486218303442001
0.04653828591108322
0.05830083042383194
0.07015562802553177
0.081966333091259
0.0934377983212471
0.10413094609975815
0.11349692195653915
0.1209428682923317
0.12590226531028748
0.1279110610485077
0.12666267156600952
0.12205108255147934
0.11417794972658157
0.10334891825914383
0.09004133194684982
0.0748632624745369
0.058500029146671295
0.04164930433034897
0.024958394467830658
0.008961476385593414
-0.005965091288089752
-0.01962859183549881
-0.03201048821210861
-0.043233998119831085
-0.05350586026906967
-0.06306371837854385
-0.07210665196180344
-0.08075816184282303
-0.08902379125356674
-0.09676643460988998
-0.10369382053613663
-0.10937567800283432
-0.11330202966928482
-0.11499408632516861
-0.114120714366436
-0.11059557646512985
-0.10460024327039719
-0.09654409438371658
-0.08696717768907547
-0.07643429189920425
-0.06543674319982529
-0.05432096868753433
-0.043251343071460724
-0.03220546990633011
-0.021001644432544708
-0.009347967803478241
0.003085188567638397
0.016576670110225677
0.03127429634332657
0.04711570590734482
0.0637817308306694
0.08067334443330765
0.0969507023692131
0.11160596460103989
0.12357520312070847
0.1318838894367218
0.1357831358909607
0.13486966490745544
0.12916401028633118
0.11913081258535385
0.10566175729036331