# vtk DataFile Version 3.0
2D PINN Solution
ASCII
DATASET STRUCTURED_GRID
DIMENSIONS 100 100 1
POINTS 10000 float
-1.0 -1.0 0.0
-0.9797979797979798 -1.0 0.0
-0.9595959595959596 -1.0 0.0
-0.9393939393939394 -1.0 0.0
-0.9191919191919192 -1.0 0.0
-0.898989898989899 -1.0 0.0
-0.8787878787878788 -1.0 0.0
-0.8585858585858586 -1.0 0.0
-0.8383838383838383 -1.0 0.0
-0.8181818181818181 -1.0 0.0
-0.797979797979798 -1.0 0.0
-0.7777777777777778 -1.0 0.0
-0.7575757575757576 -1.0 0.0
-0.7373737373737373 -1.0 0.0
-0.7171717171717171 -1.0 0.0
-0.696969696969697 -1.0 0.0
-0.6767676767676767 -1.0 0.0
-0.6565656565656566 -1.0 0.0
-0.6363636363636364 -1.0 0.0
-0.6161616161616161 -1.0 0.0
-0.5959595959595959 -1.0 0.0
-0.5757575757575757 -1.0 0.0
-0.5555555555555556 -1.0 0.0
-0.5353535353535352 -1.0 0.0
-0.5151515151515151 -1.0 0.0
-0.4949494949494949 -1.0 0.0
-0.4747474747474747 -1.0 0.0
-0.4545454545454545 -1.0 0.0
-0.43434343434343425 -1.0 0.0
-0.41414141414141414 -1.0 0.0
-0.3939393939393939 -1.0 0.0
-0.3737373737373737 -1.0 0.0
-0.3535353535353535 -1.0 0.0
-0.33333333333333326 -1.0 0.0
-0.31313131313131304 -1.0 0.0
-0.2929292929292928 -1.0 0.0
-0.2727272727272727 -1.0 0.0
-0.2525252525252525 -1.0 0.0
-0.23232323232323226 -1.0 0.0
-0.21212121212121204 -1.0 0.0
-0.19191919191919182 -1.0 0.0
-0.1717171717171716 -1.0 0.0
-0.1515151515151515 -1.0 0.0
-0.13131313131313127 -1.0 0.0
-0.11111111111111105 -1.0 0.0
-0.09090909090909083 -1.0 0.0
-0.07070707070707061 -1.0 0.0
-0.050505050505050386 -1.0 0.0
-0.030303030303030276 -1.0 0.0
-0.010101010101010055 -1.0 0.0
0.010101010101010166 -1.0 0.0
0.030303030303030498 -1.0 0.0
0.05050505050505061 -1.0 0.0
0.07070707070707072 -1.0 0.0
0.09090909090909105 -1.0 0.0
0.11111111111111116 -1.0 0.0
0.1313131313131315 -1.0 0.0
0.1515151515151516 -1.0 0.0
0.1717171717171717 -1.0 0.0
0.19191919191919204 -1.0 0.0
0.21212121212121215 -1.0 0.0
0.2323232323232325 -1.0 0.0
0.2525252525252526 -1.0 0.0
0.27272727272727293 -1.0 0.0
0.29292929292929304 -1.0 0.0
0.31313131313131315 -1.0 0.0
0.3333333333333335 -1.0 0.0
0.3535353535353536 -1.0 0.0
0.3737373737373739 -1.0 0.0
0.39393939393939403 -1.0 0.0
0.41414141414141437 -1.0 0.0
0.4343434343434345 -1.0 0.0
0.4545454545454546 -1.0 0.0
0.4747474747474749 -1.0 0.0
0.49494949494949503 -1.0 0.0
0.5151515151515154 -1.0 0.0
0.5353535353535355 -1.0 0.0
0.5555555555555556 -1.0 0.0
0.5757575757575759 -1.0 0.0
0.595959595959596 -1.0 0.0
0.6161616161616164 -1.0 0.0
0.6363636363636365 -1.0 0.0
0.6565656565656568 -1.0 0.0
0.6767676767676769 -1.0 0.0
0.696969696969697 -1.0 0.0
0.7171717171717173 -1.0 0.0
0.7373737373737375 -1.0 0.0
0.7575757575757578 -1.0 0.0
0.7777777777777779 -1.0 0.0
0.7979797979797982 -1.0 0.0
0.8181818181818183 -1.0 0.0
0.8383838383838385 -1.0 0.0
0.8585858585858588 -1.0 0.0
0.8787878787878789 -1.0 0.0
0.8989898989898992 -1.0 0.0
0.9191919191919193 -1.0 0.0
0.9393939393939394 -1.0 0.0
0.9595959595959598 -1.0 0.0
0.9797979797979799 -1.0 0.0
1.0 -1.0 0.0
-1.0 -0.9797979797979798 0.0
-0.9797979797979798 -0.9797979797979798 0.0
-0.9595959595959596 -0.9797979797979798 0.0
-0.9393939393939394 -0.9797979797979798 0.0
-0.9191919191919192 -0.9797979797979798 0.0
-0.898989898989899 -0.9797979797979798 0.0
-0.8787878787878788 -0.9797979797979798 0.0
-0.8585858585858586 -0.9797979797979798 0.0
-0.8383838383838383 -0.9797979797979798 0.0
-0.8181818181818181 -0.9797979797979798 0.0
-0.797979797979798 -0.9797979797979798 0.0
-0.7777777777777778 -0.9797979797979798 0.0
-0.7575757575757576 -0.9797979797979798 0.0
-0.7373737373737373 -0.9797979797979798 0.0
-0.7171717171717171 -0.9797979797979798 0.0
-0.696969696969697 -0.9797979797979798 0.0
-0.6767676767676767 -0.9797979797979798 0.0
-0.6565656565656566 -0.9797979797979798 0.0
-0.6363636363636364 -0.9797979797979798 0.0
-0.6161616161616161 -0.9797979797979798 0.0
-0.5959595959595959 -0.9797979797979798 0.0
-0.5757575757575757 -0.9797979797979798 0.0
-0.5555555555555556 -0.9797979797979798 0.0
-0.5353535353535352 -0.9797979797979798 0.0
-0.5151515151515151 -0.9797979797979798 0.0
-0.4949494949494949 -0.9797979797979798 0.0
-0.4747474747474747 -0.9797979797979798 0.0
-0.4545454545454545 -0.9797979797979798 0.0
-0.43434343434343425 -0.9797979797979798 0.0
-0.41414141414141414 -0.9797979797979798 0.0
-0.3939393939393939 -0.9797979797979798 0.0
-0.3737373737373737 -0.9797979797979798 0.0
-0.3535353535353535 -0.9797979797979798 0.0
-0.33333333333333326 -0.9797979797979798 0.0
-0.31313131313131304 -0.9797979797979798 0.0
-0.2929292929292928 -0.9797979797979798 0.0
-0.2727272727272727 -0.9797979797979798 0.0
-0.2525252525252525 -0.9797979797979798 0.0
-0.23232323232323226 -0.9797979797979798 0.0
-0.21212121212121204 -0.9797979797979798 0.0
-0.19191919191919182 -0.9797979797979798 0.0
-0.1717171717171716 -0.9797979797979798 0.0
-0.1515151515151515 -0.9797979797979798 0.0
-0.13131313131313127 -0.9797979797979798 0.0
-0.11111111111111105 -0.9797979797979798 0.0
-0.09090909090909083 -0.9797979797979798 0.0
-0.07070707070707061 -0.9797979797979798 0.0
-0.050505050505050386 -0.9797979797979798 0.0
-0.030303030303030276 -0.9797979797979798 0.0
-0.010101010101010055 -0.9797979797979798 0.0
0.010101010101010166 -0.9797979797979798 0.0
0.030303030303030498 -0.9797979797979798 0.0
0.05050505050505061 -0.9797979797979798 0.0
0.07070707070707072 -0.9797979797979798 0.0
0.09090909090909105 -0.9797979797979798 0.0
0.11111111111111116 -0.9797979797979798 0.0
0.1313131313131315 -0.9797979797979798 0.0
0.1515151515151516 -0.9797979797979798 0.0
0.1717171717171717 -0.9797979797979798 0.0
0.19191919191919204 -0.9797979797979798 0.0
0.21212121212121215 -0.9797979797979798 0.0
0.2323232323232325 -0.9797979797979798 0.0
0.2525252525252526 -0.9797979797979798 0.0
0.27272727272727293 -0.9797979797979798 0.0
0.29292929292929304 -0.9797979797979798 0.0
0.31313131313131315 -0.9797979797979798 0.0
0.3333333333333335 -0.9797979797979798 0.0
0.3535353535353536 -0.9797979797979798 0.0
0.3737373737373739 -0.9797979797979798 0.0
0.39393939393939403 -0.9797979797979798 0.0
0.41414141414141437 -0.9797979797979798 0.0
0.4343434343434345 -0.9797979797979798 0.0
0.4545454545454546 -0.9797979797979798 0.0
0.4747474747474749 -0.9797979797979798 0.0
0.49494949494949503 -0.9797979797979798 0.0
0.5151515151515154 -0.9797979797979798 0.0
0.5353535353535355 -0.9797979797979798 0.0
0.5555555555555556 -0.9797979797979798 0.0
0.5757575757575759 -0.9797979797979798 0.0
0.595959595959596 -0.9797979797979798 0.0
0.6161616161616164 -0.9797979797979798 0.0
0.6363636363636365 -0.9797979797979798 0.0
0.6565656565656568 -0.9797979797979798 0.0
0.6767676767676769 -0.9797979797979798 0.0
0.696969696969697 -0.9797979797979798 0.0
0.7171717171717173 -0.9797979797979798 0.0
0.7373737373737375 -0.9797979797979798 0.0
0.7575757575757578 -0.9797979797979798 0.0
0.7777777777777779 -0.9797979797979798 0.0
0.7979797979797982 -0.9797979797979798 0.0
0.8181818181818183 -0.9797979797979798 0.0
0.8383838383838385 -0.9797979797979798 0.0
0.8585858585858588 -0.9797979797979798 0.0
0.8787878787878789 -0.9797979797979798 0.0
0.8989898989898992 -0.9797979797979798 0.0
0.9191919191919193 -0.9797979797979798 0.0
0.9393939393939394 -0.9797979797979798 0.0
0.9595959595959598 -0.9797979797979798 0.0
0.9797979797979799 -0.9797979797979798 0.0
1.0 -0.9797979797979798 0.0
-1.0 -0.9595959595959596 0.0
-0.9797979797979798 -0.9595959595959596 0.0
-0.9595959595959596 -0.9595959595959596 0.0
-0.9393939393939394 -0.9595959595959596 0.0
-0.9191919191919192 -0.9595959595959596 0.0
-0.898989898989899 -0.9595959595959596 0.0
-0.8787878787878788 -0.9595959595959596 0.0
-0.8585858585858586 -0.9595959595959596 0.0
-0.8383838383838383 -0.9595959595959596 0.0
-0.8181818181818181 -0.9595959595959596 0.0
-0.797979797979798 -0.9595959595959596 0.0
-0.7777777777777778 -0.9595959595959596 0.0
-0.7575757575757576 -0.9595959595959596 0.0
-0.7373737373737373 -0.9595959595959596 0.0
-0.7171717171717171 -0.9595959595959596 0.0
-0.696969696969697 -0.9595959595959596 0.0
-0.6767676767676767 -0.9595959595959596 0.0
-0.6565656565656566 -0.9595959595959596 0.0
-0.6363636363636364 -0.9595959595959596 0.0
-0.6161616161616161 -0.9595959595959596 0.0
-0.5959595959595959 -0.9595959595959596 0.0
-0.5757575757575757 -0.9595959595959596 0.0
-0.5555555555555556 -0.9595959595959596 0.0
-0.5353535353535352 -0.9595959595959596 0.0
-0.5151515151515151 -0.9595959595959596 0.0
-0.4949494949494949 -0.9595959595959596 0.0
-0.4747474747474747 -0.9595959595959596 0.0
-0.4545454545454545 -0.9595959595959596 0.0
-0.43434343434343425 -0.9595959595959596 0.0
-0.41414141414141414 -0.9595959595959596 0.0
-0.3939393939393939 -0.9595959595959596 0.0
-0.3737373737373737 -0.9595959595959596 0.0
-0.3535353535353535 -0.9595959595959596 0.0
-0.33333333333333326 -0.9595959595959596 0.0
-0.31313131313131304 -0.9595959595959596 0.0
-0.2929292929292928 -0.9595959595959596 0.0
-0.2727272727272727 -0.9595959595959596 0.0
-0.2525252525252525 -0.9595959595959596 0.0
-0.23232323232323226 -0.9595959595959596 0.0
-0.21212121212121204 -0.9595959595959596 0.0
-0.19191919191919182 -0.9595959595959596 0.0
-0.1717171717171716 -0.9595959595959596 0.0
-0.1515151515151515 -0.9595959595959596 0.0
-0.13131313131313127 -0.9595959595959596 0.0
-0.11111111111111105 -0.9595959595959596 0.0
-0.09090909090909083 -0.9595959595959596 0.0
-0.07070707070707061 -0.9595959595959596 0.0
-0.050505050505050386 -0.9595959595959596 0.0
-0.030303030303030276 -0.9595959595959596 0.0
-0.010101010101010055 -0.9595959595959596 0.0
0.010101010101010166 -0.9595959595959596 0.0
0.030303030303030498 -0.9595959595959596 0.0
0.05050505050505061 -0.9595959595959596 0.0
0.07070707070707072 -0.9595959595959596 0.0
0.09090909090909105 -0.9595959595959596 0.0
0.11111111111111116 -0.9595959595959596 0.0
0.1313131313131315 -0.9595959595959596 0.0
0.1515151515151516 -0.9595959595959596 0.0
0.1717171717171717 -0.9595959595959596 0.0
0.19191919191919204 -0.9595959595959596 0.0
0.21212121212121215 -0.9595959595959596 0.0
[...]
POINT_DATA 10000
SCALARS u float 1
LOOKUP_TABLE default
0.8717315793037415
0.8205307722091675
0.7515334486961365
0.6659958958625793
0.5660260915756226
0.45445990562438965
0.33460691571235657
0.20993313193321228
0.08375933021306992
-0.040974922478199005
-0.16181650757789612
-0.2767999470233917
-0.3843882977962494
-0.48336848616600037
-0.5727786421775818
-0.6518370509147644
-0.7199093699455261
-0.7764811515808105
-0.8211468458175659
-0.8535916209220886
-0.8735817074775696
-0.8809612393379211
-0.8756528496742249
-0.8576655983924866
-0.8271286487579346
-0.7843140959739685
-0.7296696305274963
-0.6638475060462952
-0.5877131819725037
-0.502330482006073
-0.40893301367759705
-0.3088771402835846
-0.20359393954277039
-0.09454906731843948
0.01676703244447708
0.12883660197257996
0.24009168148040771
0.3488905131816864
0.4535095691680908
0.5521557927131653
0.6430032253265381
0.7242464423179626
0.7941593527793884
0.8511505722999573
0.8938198089599609
0.9210123419761658
0.931874692440033
0.9259324073791504
0.9031582474708557
0.8640345335006714
0.8095715045928955
0.7412671446800232
0.6609926819801331
0.5708277821540833
0.47287800908088684
0.3691173195838928
0.26130032539367676
0.15094608068466187
0.03939295560121536
-0.07211559265851974
-0.18232688307762146
-0.28990861773490906
-0.39341291785240173
-0.49128833413124084
-0.5819395184516907
-0.663806676864624
-0.7354500889778137
-0.7956141829490662
-0.8432712554931641
-0.8776417970657349
-0.898181140422821
-0.9045736789703369
-0.8967049717903137
-0.8746421337127686
-0.8386161923408508
-0.7890188097953796
-0.7264009118080139
-0.651494562625885
-0.5652374029159546
-0.4688044488430023
-0.3636424243450165
-0.2514871656894684
-0.13436120748519897
-0.014537043869495392
0.10552573949098587
0.2232934534549713
0.3362749516963959
0.44216954708099365
0.5389785170555115
0.625106692314148
0.6994056701660156
0.7611801624298096
0.8101502060890198
0.8463865518569946
0.8702345490455627
0.8822330832481384
0.8830487132072449
0.8734227418899536
0.8541445732116699
0.8260310292243958
0.8112449049949646
0.7585254311561584
0.6896468997001648
0.6064552068710327
0.5114566683769226
0.40756842494010925
0.29782015085220337
0.18507415056228638
0.07182859629392624
-0.03985784202814102
-0.14832976460456848
-0.25224506855010986
-0.350462406873703
-0.4419415295124054
-0.5256962776184082
-0.6007834076881409
-0.6663121581077576
-0.7214758396148682
-0.7655757069587708
-0.7980349659919739
-0.8184170126914978
-0.8264287114143372
-0.8219262957572937
-0.8049360513687134
-0.7756689190864563
-0.7345431447029114
-0.6821897029876709
-0.6194544434547424
-0.5473730564117432
-0.4671236574649811
-0.37996336817741394
-0.2871690094470978
-0.18998846411705017
-0.08961886912584305
0.01277344673871994
0.11601720005273819
0.21887236833572388
0.3199763596057892
0.4178072512149811
0.51067715883255
0.5967661142349243
0.6741798520088196
0.7410393357276917
0.7955695390701294
0.8362038731575012
0.8616767525672913
0.8711186647415161
0.8641495108604431
0.8409419655799866
0.8022567629814148
0.7493988871574402
0.6841101050376892
0.6083857417106628
0.5242739915847778
0.4336934983730316
0.3383145332336426
0.23952913284301758
0.13848984241485596
0.036198459565639496
-0.06637970358133316
-0.1682160198688507
-0.2681388258934021
-0.3648015856742859
-0.4566950500011444
-0.5422062873840332
-0.6197074055671692
-0.6876579523086548
-0.7446976900100708
-0.7897148728370667
-0.8218832612037659
-0.8406662344932556
-0.8458041548728943
-0.8372837901115417
-0.8153024911880493
-0.7802351713180542
-0.7326141595840454
-0.673109233379364
-0.6025306582450867
-0.5218384861946106
-0.43216052651405334
-0.33481112122535706
-0.23130938410758972
-0.12338260561227798
-0.012958742678165436
0.09787682443857193
0.2069357931613922
0.3120129406452179
0.41099750995635986
0.5019702911376953
0.5833112597465515
0.6537602543830872
0.7124582529067993
0.7589383125305176
0.7930938601493835
0.8151127696037292
0.8254192471504211
0.8246089220046997
0.8133985996246338
0.7925905585289001
0.763055145740509
0.7331299781799316
0.6803786158561707
0.6138754487037659
0.5358891487121582
0.44904807209968567
0.35603243112564087
0.2593082785606384
0.16094517707824707
0.06256290525197983
-0.03461027890443802
-0.1296118199825287
-0.22159841656684875
-0.30971553921699524
-0.3930257260799408
-0.4704834520816803
-0.5409673452377319
-0.6033331751823425
-0.6564875245094299
-0.6994491219520569
-0.7313950657844543
-0.7517039179801941
-0.7599696516990662
-0.756025493144989
-0.7399522662162781
-0.7120892405509949
-0.6730327010154724
-0.6236173510551453
-0.5648789405822754
-0.4979870617389679
-0.4241724908351898
-0.34464386105537415
-0.26052913069725037
-0.1728413701057434
-0.08249220997095108
0.009668923914432526
0.10277701169252396
0.1958737075328827
0.2878352701663971
0.3773181140422821
0.46274474263191223
0.5423337817192078
0.614159882068634
0.6762587428092957
0.7267551422119141
0.7640014886856079
0.7867183089256287
0.7941150069236755
0.785994291305542
0.7627896666526794
0.7255474328994751
0.6758074164390564
0.615423858165741
0.5463423132896423
0.4703950881958008
0.3891655504703522
0.30393052101135254
0.21569517254829407
0.12527281045913696
0.03339836746454239
-0.05916263163089752
-0.15152928233146667
-0.24263957142829895
-0.33122530579566956
-0.415830135345459
-0.4948595464229584
-0.5666728615760803
-0.6296911835670471
-0.6825007796287537
-0.7239469885826111
-0.7531875967979431
-0.769714891910553
-0.7733362317085266
-0.7641456723213196
-0.7424702048301697
-0.7088260054588318
-0.6638752222061157
-0.6083939671516418
-0.5432606339454651
-0.4694463312625885
-0.38801950216293335
-0.30015289783477783
-0.20713499188423157
-0.11037717014551163
-0.011420734226703644
0.08806740492582321
0.18631479144096375
0.2814828157424927
0.3717295825481415
0.45529577136039734
0.5305882692337036
0.5962693691253662
0.6513168215751648
0.6950554251670837
0.7271584868431091
0.7476155757904053
0.7566923499107361
0.7548722624778748
0.7428162693977356
0.7213243842124939
0.6913137435913086
0.6397646069526672
0.5890071988105774
0.5274814963340759
0.45759865641593933
0.3817853033542633
0.3022055923938751
0.22058337926864624
0.13815516233444214
0.05573030561208725
-0.026159770786762238
-0.10709116607904434
-0.1865842044353485
-0.26399126648902893
-0.3384319543838501
-0.4088022708892822
-0.4738254249095917
-0.5321388840675354
-0.5824012160301208
-0.6233850717544556
-0.6540608406066895
-0.6736575365066528
-0.681704580783844
-0.6780519485473633
-0.6628795862197876
-0.6366902589797974
-0.6002756953239441
-0.5546613931655884
-0.5010263323783875
-0.440603643655777
-0.37458840012550354
-0.30405330657958984
-0.22990655899047852
-0.15289244055747986
-0.0736340805888176
0.007294647395610809
0.08927930146455765
0.1715734302997589
0.2532263994216919
0.3330312669277191
0.4095102846622467
0.4809419512748718
0.5454292893409729
0.6010182499885559
0.6458466053009033
0.6783141493797302
0.6972572207450867
0.702085018157959
0.6928677558898926
0.6703301072120667
0.6357554793357849
0.5907973051071167
0.5372437238693237
0.47679072618484497
0.41088777780532837
0.34066852927207947
0.26697400212287903
0.19043901562690735
0.11159893125295639
0.03100157529115677
-0.05070946365594864
-0.13272526860237122
-0.21403977274894714
-0.2934368848800659
-0.3695167601108551
-0.4407404363155365
-0.5055166482925415
-0.5623044371604919
-0.6097177863121033
-0.6466280221939087
-0.6722302436828613
-0.6860713362693787
-0.6880400776863098
-0.6783276200294495
-0.6573716402053833
-0.6257947087287903
-0.5843556523323059
-0.5339027047157288
-0.4753495752811432
-0.4096542298793793
-0.33780837059020996
-0.2608371675014496
-0.17979317903518677
-0.09577342122793198
-0.009931333363056183
0.0764983519911766
0.16218724846839905
0.2457081377506256
0.32555606961250305
0.4001968502998352
0.4681353271007538
0.5280097126960754
0.5786659717559814
0.6192307472229004
0.6491459608078003
0.6681732535362244
0.676384449005127
0.6741195321083069
0.6619563102722168
0.6406697034835815
0.6112083792686462
0.5342502593994141
0.4878481328487396
0.4339335858821869
0.37473970651626587
0.31220829486846924
0.24781012535095215
0.18248486518859863
0.11670943349599838
0.05063634365797043
-0.015725649893283844
-0.08233145624399185
-0.14895525574684143
-0.21508744359016418
-0.2798943519592285
-0.34223344922065735
-0.4007215201854706
-0.45384082198143005
-0.5000671744346619
-0.5379927754402161
-0.5664432644844055
-0.584558367729187
-0.591858446598053
-0.5882609486579895
-0.5740851163864136
-0.5500136017799377
-0.5170173048973083
-0.4762631356716156
-0.42899245023727417
-0.37639978528022766
-0.31954023241996765
-0.259263813495636
-0.1962076723575592
-0.13083338737487793
-0.06349807232618332
0.005447886884212494
0.07557015866041183
0.1462596356868744
0.21666768193244934
0.28567439317703247
0.3518783748149872
0.4136350452899933
0.46913719177246094
0.5165429711341858
0.5541380643844604
0.580528199672699
0.5948176980018616
0.5967356562614441
0.5866848826408386
0.5656620860099792
0.5350856781005859
0.4965530335903168
0.4515882432460785
0.4014626443386078
0.3471187353134155
0.28918132185935974
0.22806283831596375
0.16407155990600586
0.09753277152776718
0.028876952826976776
-0.04129994660615921
-0.11220896989107132
-0.18285512924194336
-0.2520522475242615
-0.31845423579216003
-0.38061121106147766
-0.4370383322238922
-0.4863151013851166
-0.5271775722503662
-0.5586110949516296
-0.579918384552002
-0.5907416343688965
-0.5910579562187195
-0.5811364650726318
-0.561481237411499
-0.532770574092865
-0.49579718708992004
-0.45143023133277893
-0.40057119727134705
-0.3441336750984192
-0.2830113172531128
-0.2180703580379486
-0.15013977885246277
-0.08001651614904404
-0.008493982255458832
0.06360837072134018
0.13539469242095947
0.20585918426513672
0.2738698422908783
0.3381738066673279
0.39744874835014343
0.4503764808177948
0.4957365095615387
0.5324963331222534
0.559884250164032
0.5774368643760681
0.5850126147270203
0.5827872157096863
0.5712267756462097
0.5510574579238892
0.523231029510498
0.4201318323612213
0.3804694712162018
0.33649733662605286
0.28998053073883057
0.24219733476638794
0.19387495517730713
0.1452452540397644
0.09617453068494797
0.04633893817663193
-0.004601664841175079
-0.05684501677751541
-0.11032576113939285
-0.16463100910186768
-0.2189737856388092
-0.2722112238407135
-0.3229186236858368
-0.3695025146007538
-0.41034457087516785
-0.4439472258090973
-0.46907541155815125
-0.48486557602882385
-0.49089130759239197
-0.4871959984302521
-0.4742584526538849
-0.4529280364513397
-0.4243074357509613
-0.3896123468875885
-0.3500373661518097
-0.3066207468509674
-0.26017698645591736
-0.21126750111579895
-0.16022968292236328
-0.10725300759077072
-0.052473284304142
0.0039267465472221375
0.06161893159151077
0.120064876973629
0.1784570813179016
0.23571476340293884
0.2904950976371765
0.3412470519542694
0.38631242513656616
0.42406606674194336
0.4530852138996124
0.47234269976615906
0.4813568592071533
0.4802788496017456
0.4698561728000641
0.45128968358039856
0.4259871542453766
0.39530327916145325
0.360329270362854
0.3217926025390625
0.2800678312778473
0.23527783155441284
0.18743929266929626
0.1365937888622284
0.08291635662317276
0.026774398982524872
-0.031243860721588135
-0.09033172577619553
-0.14948368072509766
-0.20753106474876404
-0.26318809390068054
-0.31511518359184265
-0.3619885742664337
-0.4025813043117523
-0.4358423054218292
-0.4609643518924713
-0.4774312674999237
-0.48502662777900696
-0.48382219672203064
-0.47413721680641174
-0.4564872086048126
-0.431531697511673
-0.40003296732902527
-0.36280760169029236
-0.3206957280635834
-0.27452027797698975
-0.22505757212638855
-0.17300984263420105
-0.11899352818727493
-0.063536636531353
-0.007112272083759308
0.04982582479715347
0.10677721351385117
0.16313686966896057
0.21814706921577454
0.270876407623291
0.32023361325263977
0.3650270700454712
0.40404945611953735
0.43618306517601013
0.4604971706867218
0.47632917761802673
0.4833371043205261
0.48152005672454834
0.47121408581733704
0.45306524634361267
0.42799732089042664
0.3010372221469879
0.27019715309143066
0.23791328072547913
0.20530202984809875
0.1729210913181305
0.14082080125808716
0.10866215080022812
0.0758797749876976
0.04184394329786301
0.0060127899050712585
-0.03194735199213028
-0.07206190377473831
-0.11398965865373611
-0.1569991409778595
-0.19999220967292786
-0.24157047271728516
-0.28015848994255066
-0.31414830684661865
-0.34206637740135193
-0.36272457242012024
-0.3753471076488495
-0.3796457052230835
-0.3758218288421631
-0.3645181953907013
-0.3467053174972534
-0.32352492213249207
-0.29613128304481506
-0.26553550362586975
-0.23251667618751526
-0.19756823778152466
-0.16092225909233093
-0.12262237817049026
-0.08261614292860031
-0.04086623340845108
0.0025476738810539246
0.04734764248132706
0.09300484508275986
0.13871386647224426
0.18340355157852173
0.2257823944091797
0.26442235708236694
0.29787611961364746
0.32483869791030884
0.34431180357933044
0.3557693064212799
0.3592546284198761
0.3553798794746399
0.3452032506465912
0.33000847697257996
0.3110300600528717
0.2892268896102905
0.2651483416557312
0.23893091082572937
0.21039575338363647
0.17921361327171326
0.1450660526752472
0.10778536647558212
0.06743703037500381
0.02435297518968582
-0.02086997777223587
-0.06740181893110275
-0.11422751098871231
-0.1602036952972412
-0.2041221559047699
-0.24478080868721008
-0.2810611426830292
-0.3119904696941376
-0.3368033170700073
-0.3549710214138031
-0.3662245571613312
-0.3705263137817383
-0.3680463135242462
-0.35912445187568665
-0.34422996640205383
-0.32393568754196167
-0.29889413714408875
-0.26980239152908325
-0.23737743496894836
-0.20231223106384277
-0.16523879766464233
-0.12669065594673157
-0.0870857909321785
-0.04672003537416458
-0.005795739591121674
0.03553735464811325
0.07711450010538101
0.11868465691804886
0.15984174609184265
0.19998538494110107
0.23830029368400574
0.27379557490348816
0.3053705096244812
0.33191415667533875
0.35241979360580444
0.36608976125717163
0.37241777777671814
0.3712379038333893
0.36274293065071106
0.3474729359149933
0.3262796998023987
0.18032440543174744
0.1598270833492279
0.14024227857589722
0.12198304384946823
0.10494431108236313
0.08862834423780441
0.07229038327932358
0.055097244679927826
0.036254964768886566
0.01512860506772995
-0.008672185242176056
-0.03521997481584549
-0.06422800570726395
-0.09503645449876785
-0.1266309916973114
-0.15771889686584473
-0.18683719635009766
-0.21250662207603455
-0.2333986759185791
-0.24849635362625122
-0.25721558928489685
-0.2594662606716156
-0.25563639402389526
-0.24649536609649658
-0.23305663466453552
-0.2163839042186737
-0.19743427634239197
-0.17693185806274414
-0.15529894828796387
-0.13266780972480774
-0.10894084721803665
-0.08388728648424149
-0.05725879222154617
-0.028900958597660065
0.0011603310704231262
0.032651372253894806
0.06501934677362442
0.097437284886837
0.12884151935577393
0.15801215171813965
0.1836850941181183
0.20470014214515686
0.22016671299934387
0.2296144962310791
0.2331032156944275
0.23123466968536377
0.22504973411560059
0.2158152163028717
0.2047542929649353
0.19279250502586365
0.18039891123771667
0.1675540804862976
0.15383344888687134
0.13857927918434143
0.12108931690454483
0.10078438371419907
0.07733427733182907
0.05071795731782913
0.021237142384052277
-0.01051541417837143
-0.0437086746096611
-0.07734488695859909
-0.1103384867310524
-0.14159268140792847
-0.17008540034294128
-0.19494009017944336
-0.2154846489429474
-0.23127952218055725
-0.24212196469306946
-0.24801412224769592
-0.24911469221115112
-0.24569150805473328
-0.23807811737060547
-0.2266567051410675
-0.211854487657547
-0.19414687156677246
-0.17405015230178833
-0.1521005630493164
-0.1288166344165802
-0.10465801507234573
-0.07998614758253098
-0.05503196269273758
-0.02989511936903
-0.0045598819851875305
0.021063141524791718
0.047074757516384125
0.07351424545049667
0.10028808563947678
0.12710610032081604
0.15345656871795654
0.17860347032546997
0.20163756608963013
0.22156113386154175
0.23739749193191528
0.24830064177513123
0.2536643147468567
0.25319328904151917
0.24694126844406128
0.23531672358512878
0.21904996037483215
0.060828886926174164
0.05148177593946457
0.044854603707790375
0.04070752114057541
0.03839673846960068
0.03703322261571884
0.035619936883449554
0.03318493813276291
0.028874509036540985
0.022032849490642548
0.012265495955944061
-0.0005214884877204895
-0.016091592609882355
-0.03387147933244705
-0.052980996668338776
-0.07230336219072342
-0.09058866649866104
-0.10660330206155777
-0.11929357796907425
-0.1279298961162567
-0.1322086751461029
-0.13228720426559448
-0.12872138619422913
-0.12235025316476822
-0.11411140114068985
-0.10487336665391922
-0.09528347104787827
-0.08568573743104935
-0.07610764354467392
-0.06631354242563248
-0.055895693600177765
-0.04439524561166763
-0.031417541205883026
-0.0167338028550148
-0.00035659223794937134
0.017419837415218353
0.03600997477769852
0.054568998515605927
0.07206692546606064
0.08740188926458359
0.09954097121953964
0.10769238322973251
0.11145969480276108
0.11095685511827469
0.10683970898389816
0.10021375864744186
0.09243149310350418
0.08482187241315842
0.0784115269780159
0.07373090833425522
0.07074549049139023
0.06891746073961258
0.06736256927251816
0.06505224853754044
0.06101007014513016
0.054468609392642975
0.044974587857723236
0.032430343329906464
0.017087392508983612
-0.0004959478974342346
-0.019535772502422333
-0.03910406678915024
-0.05822665989398956
-0.07597746700048447
-0.091563381254673
-0.10439548641443253
-0.11412840336561203
-0.12066156417131424
-0.12411094456911087
-0.12474111467599869
-0.12289222329854965
-0.11891121417284012
-0.11311217397451401
-0.10576789826154709
-0.09712866693735123
-0.08745212107896805
-0.0770212933421135
-0.06614095717668533
-0.05511661618947983
-0.044206179678440094
-0.033584676682949066
-0.023312054574489594
-0.013318128883838654
-0.0034188106656074524
0.006652452051639557
0.017194844782352448
0.028469093143939972
0.04063592106103897
0.05368765443563461
0.06740724295377731
0.08135145157575607
0.09487413614988327
0.10718672722578049
0.1174505278468132
0.12488112598657608
0.12885811924934387
0.12901300191879272
0.1252809464931488
0.11792326718568802
0.10750419646501541
-0.05526665598154068
-0.053374506533145905
-0.04745001345872879
-0.038257814943790436
-0.026826806366443634
-0.01429487019777298
-0.0017856433987617493
0.009680621325969696
0.019257478415966034
0.0263153538107872
0.030475758016109467
0.031636886298656464
0.0299791619181633
0.025961272418498993
0.020281873643398285
0.01381092518568039
0.007487468421459198
0.0021811649203300476
-0.0014390423893928528
-0.003027506172657013
-0.002620406448841095
-0.0006220713257789612
0.002288602292537689
0.0053032562136650085
0.00766357034444809
0.008810125291347504
0.00848378986120224
0.006755433976650238
0.003990896046161652
0.0007659420371055603
-0.0022534355521202087
-0.004427500069141388
-0.005259014666080475
-0.004478298127651215
-0.0021005645394325256
0.0015540346503257751
0.005883149802684784
0.010059870779514313
0.013144664466381073
0.014227576553821564
0.012592636048793793
0.007894448935985565
0.00028046220541000366
-0.009554170072078705
-0.020435161888599396
-0.030894316732883453
-0.03944035619497299
-0.044847019016742706
-0.04638832062482834
-0.04394923895597458
-0.03800501674413681
-0.02949664741754532
-0.019631318747997284
-0.009678013622760773
-0.0007840171456336975
0.006160669028759003
0.0106111541390419
0.012389950454235077
0.011672966182231903
0.008928187191486359
0.004833348095417023
0.00017120689153671265
-0.004271261394023895
-0.007812343537807465
-0.00994909554719925
-0.010419555008411407
-0.009216614067554474
-0.006561055779457092
-0.0028445199131965637
0.0014597401022911072
0.005878634750843048
0.010014750063419342
0.013584338128566742
0.016420699656009674
0.018451713025569916
0.019646279513835907
0.0199836865067482
0.01942414790391922
0.01791837066411972
0.015437833964824677
0.012005157768726349
0.007732413709163666
0.002832971513271332
-0.002377130091190338
-0.007505305111408234
-0.012118138372898102
-0.015792928636074066
-0.018175818026065826
-0.019037283957004547